xxxxxxx                                                                 
SP        ROB3LYP                                                     6-31G(d)            
Number of atoms                            I                4
Info1-9                                    I   N=           9
          12          11           0           0           0         110
           1          18        -502
Full Title                                 C   N=           1
xxxxxxx     
Route                                      C   N=           3
# rob3lyp/6-31g(d) guess=read       
Charge                                     I                0
Multiplicity                               I                2
Number of electrons                        I                9
Number of alpha electrons                  I                5
Number of beta electrons                   I                4
Number of basis functions                  I               21
Number of independent functions            I               21
Number of point charges in /Mol/           I                0
Number of translation vectors              I                0
Atomic numbers                             I   N=           4
           6           1           1           1
Nuclear charges                            R   N=           4
  6.00000000E+00  1.00000000E+00  1.00000000E+00  1.00000000E+00
Current cartesian coordinates              R   N=          12
  3.52930395E-23  4.32215078E-39  2.91017823E-04  0.00000000E+00  2.04618201E+00
 -5.82035646E-04 -1.77204560E+00 -1.02309100E+00 -5.82035646E-04  1.77204560E+00
 -1.02309100E+00 -5.82035646E-04
Number of symbols in /Mol/                 I                0
Force Field                                I                0
Atom Types                                 C   N=           4
                                                
Int Atom Types                             I   N=           4
           0           0           0           0
MM charges                                 R   N=           4
  0.00000000E+00  0.00000000E+00  0.00000000E+00  0.00000000E+00
Integer atomic weights                     I   N=           4
          12           1           1           1
Real atomic weights                        R   N=           4
  1.20000000E+01  1.00782504E+00  1.00782504E+00  1.00782504E+00
Atom fragment info                         I   N=           4
           0           0           0           0
Atom residue num                           I   N=           4
           0           0           0           0
Nuclear spins                              I   N=           4
           0           1           1           1
Nuclear ZEff                               R   N=           4
 -3.60000000E+00 -1.00000000E+00 -1.00000000E+00 -1.00000000E+00
Nuclear ZNuc                               R   N=           4
  6.00000000E+00  1.00000000E+00  1.00000000E+00  1.00000000E+00
Nuclear QMom                               R   N=           4
  0.00000000E+00  0.00000000E+00  0.00000000E+00  0.00000000E+00
Nuclear GFac                               R   N=           4
  0.00000000E+00  2.79284600E+00  2.79284600E+00  2.79284600E+00
MicOpt                                     I   N=           4
          -1          -1          -1          -1
Number of residues                         I                0
Number of secondary structures             I                0
SymInf integers                            I   N=          26
           1           1           1           1           1           0
           0           0           0           0           0           0
           0           0           0           0           0           0
           0           0           0           0           0           0
           0           0
RotTr to input orientation                 R   N=          12
 -1.00000000E+00 -1.22464680E-16  0.00000000E+00 -1.22464680E-16  1.00000000E+00
  0.00000000E+00  0.00000000E+00  0.00000000E+00 -1.00000000E+00  0.00000000E+00
  2.09969569E-07  0.00000000E+00
Number of contracted shells                I               10
Number of primitive shells                 I               23
Pure/Cartesian d shells                    I                1
Pure/Cartesian f shells                    I                0
Highest angular momentum                   I                2
Largest degree of contraction              I                6
Shell types                                I   N=          10
           0          -1          -1           2           0           0
           0           0           0           0
Number of primitives per shell             I   N=          10
           6           3           1           1           3           1
           3           1           3           1
Shell to atom map                          I   N=          10
           1           1           1           1           2           2
           3           3           4           4
Primitive exponents                        R   N=          23
  3.04752488E+03  4.57369518E+02  1.03948685E+02  2.92101553E+01  9.28666296E+00
  3.16392696E+00  7.86827235E+00  1.88128854E+00  5.44249258E-01  1.68714478E-01
  8.00000000E-01  1.87311370E+01  2.82539436E+00  6.40121692E-01  1.61277759E-01
  1.87311370E+01  2.82539436E+00  6.40121692E-01  1.61277759E-01  1.87311370E+01
  2.82539436E+00  6.40121692E-01  1.61277759E-01
Contraction coefficients                   R   N=          23
  1.83473713E-03  1.40373228E-02  6.88426223E-02  2.32184443E-01  4.67941348E-01
  3.62311985E-01 -1.19332420E-01 -1.60854152E-01  1.14345644E+00  1.00000000E+00
  1.00000000E+00  3.34946043E-02  2.34726953E-01  8.13757326E-01  1.00000000E+00
  3.34946043E-02  2.34726953E-01  8.13757326E-01  1.00000000E+00  3.34946043E-02
  2.34726953E-01  8.13757326E-01  1.00000000E+00
P(S=P) Contraction coefficients            R   N=          23
  0.00000000E+00  0.00000000E+00  0.00000000E+00  0.00000000E+00  0.00000000E+00
  0.00000000E+00  6.89990666E-02  3.16423961E-01  7.44308291E-01  1.00000000E+00
  0.00000000E+00  0.00000000E+00  0.00000000E+00  0.00000000E+00  0.00000000E+00
  0.00000000E+00  0.00000000E+00  0.00000000E+00  0.00000000E+00  0.00000000E+00
  0.00000000E+00  0.00000000E+00  0.00000000E+00
Coordinates of each shell                  R   N=          30
  3.52930395E-23  1.32348898E-23  2.91017823E-04  3.52930395E-23  1.32348898E-23
  2.91017823E-04  3.52930395E-23  1.32348898E-23  2.91017823E-04  3.52930395E-23
  1.32348898E-23  2.91017823E-04  0.00000000E+00  2.04618201E+00 -5.82035646E-04
  0.00000000E+00  2.04618201E+00 -5.82035646E-04 -1.77204560E+00 -1.02309100E+00
 -5.82035646E-04 -1.77204560E+00 -1.02309100E+00 -5.82035646E-04  1.77204560E+00
 -1.02309100E+00 -5.82035646E-04  1.77204560E+00 -1.02309100E+00 -5.82035646E-04
Num ILSW                                   I              100
ILSW                                       I   N=         100
           0           1           0           0           2           0
           0           0           0           0         402          -1
           5           0           0           0           0           0
           0           0           1           1           0           0
           1           0           0           0           0           0
           0           0      100000           0          -1           0
           0           0           0           0           0           0
           0           0           0           1           0           0
           0 -2000000000           1           0           0           0
           0           0           4          52           0           0
           0           0           5           0           0           0
           0           0           0           0           0           1
           0           0           0           0           0           0
           0           0           0           0           0           0
           0           0           0           0           0           0
           0           0           0           0           0           0
           0           0           0           0
Num RLSW                                   I               52
RLSW                                       R   N=          52
  8.00000000E-01  7.20000000E-01  1.00000000E+00  8.10000000E-01  2.00000000E-01
  0.00000000E+00  0.00000000E+00  1.00000000E+00  0.00000000E+00  0.00000000E+00
  0.00000000E+00  0.00000000E+00  1.00000000E+00  0.00000000E+00  0.00000000E+00
  0.00000000E+00  0.00000000E+00  1.00000000E+00  0.00000000E+00  0.00000000E+00
  0.00000000E+00  0.00000000E+00  1.00000000E+00  0.00000000E+00  0.00000000E+00
  0.00000000E+00  0.00000000E+00  1.00000000E+00  0.00000000E+00  0.00000000E+00
  0.00000000E+00  0.00000000E+00  1.00000000E+00  0.00000000E+00  0.00000000E+00
  0.00000000E+00  0.00000000E+00  0.00000000E+00  1.00000000E+00  1.00000000E+00
  0.00000000E+00  1.00000000E+00  0.00000000E+00  0.00000000E+00  0.00000000E+00
  0.00000000E+00  0.00000000E+00  0.00000000E+00  0.00000000E+00  0.00000000E+00
  0.00000000E+00  0.00000000E+00
MxBond                                     I                3
NBond                                      I   N=           4
           3           1           1           1
IBond                                      I   N=          12
           2           3           4           1           0           0
           1           0           0           1           0           0
RBond                                      R   N=          12
  1.00000000E+00  1.00000000E+00  1.00000000E+00  1.00000000E+00  0.00000000E+00
  0.00000000E+00  1.00000000E+00  0.00000000E+00  0.00000000E+00  1.00000000E+00
  0.00000000E+00  0.00000000E+00
Virial Ratio                               R      2.010215116014970E+00
SCF Energy                                 R     -3.983676928756613E+01
Total Energy                               R     -3.983676928756613E+01
S**2                                       R      7.499999999999751E-01
S**2 after annihilation                    R      7.500000000000180E-01
RMS Density                                R      1.111401917124926E-09
Job Status                                 I                1
Nuclear derivative order                   I                0
External E-field                           R   N=          35
  0.00000000E+00  0.00000000E+00  0.00000000E+00  0.00000000E+00  0.00000000E+00
  0.00000000E+00  0.00000000E+00  0.00000000E+00  0.00000000E+00  0.00000000E+00
  0.00000000E+00  0.00000000E+00  0.00000000E+00  0.00000000E+00  0.00000000E+00
  0.00000000E+00  0.00000000E+00  0.00000000E+00  0.00000000E+00  0.00000000E+00
  0.00000000E+00  0.00000000E+00  0.00000000E+00  0.00000000E+00  0.00000000E+00
  0.00000000E+00  0.00000000E+00  0.00000000E+00  0.00000000E+00  0.00000000E+00
  0.00000000E+00  0.00000000E+00  0.00000000E+00  0.00000000E+00  0.00000000E+00
IOpCl                                      I                0
IROHF                                      I                1
Alpha Orbital Energies                     R   N=          21
 -1.01831549E+01 -6.54186201E-01 -4.09811981E-01 -4.09811968E-01 -8.95512294E-02
  1.19685524E-01  1.83628348E-01  1.83628381E-01  5.47628819E-01  5.47628850E-01
  5.61215534E-01  6.91033430E-01  9.15302925E-01  9.15302964E-01  9.67390077E-01
  1.67432469E+00  1.67432469E+00  2.03838991E+00  2.19041593E+00  2.19041594E+00
  4.07925774E+00
Alpha MO coefficients                      R   N=         441
  9.92753749E-01  4.86462265E-02 -3.76197273E-16  1.55898527E-09 -1.23145067E-06
 -1.07209705E-02 -1.61883279E-16 -1.18987661E-09  1.41647452E-06 -9.38605501E-03
 -9.38605472E-03 -9.77821028E-03  4.91582544E-16  6.73459930E-17 -1.06166833E-12
 -4.22353611E-04  2.16133675E-03 -4.22353072E-04  2.16133561E-03 -4.22353072E-04
  2.16133561E-03 -2.01053591E-01  3.95013468E-01  2.05194418E-16 -1.60326273E-08
 -1.47425342E-04  3.68088504E-01 -2.11684166E-15 -2.54193962E-09 -6.59053509E-05
  9.52377557E-03  9.52378323E-03 -2.09459359E-02  2.38387810E-16 -2.49004625E-16
  2.80075246E-11  1.52134873E-01  5.39805225E-02  1.52134880E-01  5.39805268E-02
  1.52134880E-01  5.39805268E-02 -3.30737331E-09 -9.22311159E-10 -3.60325091E-08
  4.51454578E-01  1.90131937E-10  3.36829307E-09 -1.48200595E-08  1.85681797E-01
  1.54429733E-10 -2.04521303E-02  2.04521329E-02  2.15083913E-10  1.88490085E-09
  2.46901114E-12 -3.09348818E-05  2.85240979E-01  2.29449602E-01 -1.42620462E-01
 -1.14724777E-01 -1.42620501E-01 -1.14724809E-01 -7.63375328E-16 -2.18159731E-15
  4.51454552E-01  3.60325105E-08  4.62168658E-16  1.06567448E-14  1.85681809E-01
  1.48200521E-08  8.71307883E-16 -1.63237185E-09  1.63237129E-09 -8.78535794E-16
 -2.36160891E-02 -3.09347839E-05 -2.46952647E-12  2.27662959E-08  1.83133487E-08
 -2.47025947E-01 -1.98709192E-01  2.47025924E-01  1.98709174E-01 -1.07783783E-04
  2.32631178E-04 -5.66398370E-16 -3.38930484E-10  5.99171046E-01  4.85981764E-04
  2.14989546E-17  2.16665230E-11  5.28984105E-01 -1.01452451E-05 -1.01453524E-05
 -2.78199937E-06 -1.10799563E-16  4.09849090E-16 -2.04715838E-09 -8.29897081E-05
 -1.05149202E-04 -8.29897084E-05 -1.05149129E-04 -8.29897084E-05 -1.05149129E-04
 -1.55889474E-01  2.42412309E-01 -1.34366636E-14  7.11468011E-09 -2.43585813E-04
  2.21730530E+00 -8.54642894E-14  2.29256905E-08 -7.75322074E-04 -1.07914054E-02
 -1.07913936E-02 -6.68192895E-03 -1.43607844E-16 -9.23456582E-16 -8.46730832E-12
 -6.67257507E-02 -1.09647057E+00 -6.67257601E-02 -1.09647052E+00 -6.67257601E-02
 -1.09647052E+00 -1.07403019E-09  7.46816040E-09 -2.75998954E-08 -4.04897758E-01
  1.70813106E-10  1.56057972E-08 -9.90280426E-08 -1.45276671E+00 -3.16728183E-10
 -1.49130687E-02  1.49130682E-02  1.05535671E-09 -1.17381087E-09 -3.30776061E-15
 -5.76102801E-08  8.53002845E-02  1.88686787E+00 -4.26501575E-02 -9.43434058E-01
 -4.26501474E-02 -9.43433836E-01 -6.74403595E-15  2.38826196E-14  4.04897780E-01
 -2.75999037E-08  4.82911820E-16  7.19118962E-14  1.45276669E+00 -9.90280233E-08
 -3.00192109E-16 -1.01654913E-09  1.01655330E-09  2.30370042E-15  1.72201300E-02
  5.77118407E-08 -7.26148571E-15  5.81450448E-09  1.28618535E-07  7.38722161E-02
  1.63407543E+00 -7.38722220E-02 -1.63407556E+00  5.16318121E-09  2.24639375E-08
 -3.63172620E-08 -7.51608851E-01  8.07780353E-09 -9.77323354E-08  8.24118944E-08
  1.70556661E+00 -8.44598968E-09  9.41793807E-02 -9.41793484E-02  1.43213993E-08
  5.25468000E-09  3.86195488E-12  7.99244134E-05 -4.60281265E-01 -4.80271176E-01
  2.30140669E-01  2.40135627E-01  2.30140630E-01  2.40135587E-01 -5.76462195E-16
  1.24673789E-14 -7.51608800E-01  3.63172507E-08  3.05090853E-14 -1.78932998E-14
  1.70556654E+00 -8.24118948E-08 -3.12735642E-14 -4.55068614E-09  4.55069346E-09
  3.30430365E-15  1.08748982E-01  7.99242939E-05 -3.86087563E-12  2.22404980E-08
  2.32064091E-08  3.98615312E-01  4.15926969E-01 -3.98615335E-01 -4.15926992E-01
  4.75092328E-05 -1.04925785E-04 -2.13282770E-14 -5.95287882E-09 -1.05907581E+00
 -4.11035953E-04  4.98031178E-14  1.29381208E-08  1.09582109E+00  1.85247673E-05
  1.85234945E-05 -4.38680224E-05  3.30014972E-15  2.63049828E-16  7.50036460E-09
  1.84446861E-04  1.26934593E-04  1.84452045E-04  1.26939755E-04  1.84452045E-04
  1.26939755E-04 -7.83836149E-02 -7.09185641E-01 -1.74945011E-15  3.48891294E-09
 -3.76327822E-04  1.76272874E+00  1.39238382E-14  1.96624571E-08 -2.27932233E-04
 -1.59194795E-01 -1.59194817E-01  9.93078740E-02  1.19450877E-15 -1.19162511E-15
  4.74969828E-11 -5.97601259E-01 -3.95639796E-02 -5.97601210E-01 -3.95640096E-02
 -5.97601210E-01 -3.95640096E-02  1.52398723E-09 -1.72173162E-07  5.47686013E-08
  8.70887252E-01 -2.24039082E-11  3.82748417E-07 -7.78615652E-08 -1.23809344E+00
  8.57003840E-11  1.81919479E-01 -1.81919483E-01 -1.94177348E-08  1.32104713E-08
  1.01120923E-11  1.60809784E-04 -8.54061486E-01  1.60097106E+00  4.27030875E-01
 -8.00485819E-01  4.27030782E-01 -8.00485645E-01 -2.28784733E-15  1.20022675E-13
 -8.70887300E-01  5.47686069E-08 -1.02209034E-15 -2.38113938E-13  1.23809355E+00
 -7.78615912E-08  4.98916335E-16  1.14406016E-08 -1.14406021E-08  6.40833557E-15
 -2.10062512E-01 -1.60810030E-04  1.01156730E-11 -5.37104779E-08  1.00682414E-07
 -7.39638940E-01  1.38648172E+00  7.39638993E-01 -1.38648182E+00  2.06576790E-02
 -1.77948168E+00 -6.48811563E-14 -1.10353879E-07  3.81255350E-04  3.76924610E+00
  1.04075595E-13  1.38017318E-07 -8.33234571E-04 -6.32190939E-02 -6.32190880E-02
 -1.48507530E-01 -9.69179998E-15 -3.30573133E-15  6.15702634E-12  3.78193637E-01
 -1.18359737E+00  3.78193488E-01 -1.18359712E+00  3.78193488E-01 -1.18359712E+00
  1.35030783E-16 -1.16692084E-14  2.49858737E-05 -4.79262108E-12 -2.03328483E-15
  1.90324905E-14  5.07563837E-05 -9.73930492E-12  4.89667124E-16  1.50394418E-10
 -1.50390118E-10  1.97485476E-15 -9.05084722E-04  9.99999590E-01 -1.91867500E-07
  1.13975875E-11  5.03806925E-13  5.14438178E-05  2.29951103E-06 -5.14438292E-05
 -2.29951155E-06  8.11822049E-11 -2.56392325E-10  4.80020764E-12  2.49862669E-05
  9.16955262E-09 -6.25465876E-10  9.73772794E-12  5.07559464E-05 -7.13536512E-09
 -7.83826196E-04  7.83826268E-04  5.98400104E-10 -1.73650860E-10  1.91867500E-07
  9.99999590E-01 -5.94021249E-05 -2.65485036E-06  2.97012883E-05  1.32755823E-06
  2.97012686E-05  1.32755734E-06  5.29421083E-02  1.85092487E-01  6.45171843E-15
 -4.94501702E-09  6.23119133E-05 -9.17728381E-01  1.75872479E-14 -3.35647775E-08
  3.28168763E-04 -5.09311947E-01 -5.09312042E-01  1.10128425E+00 -3.77570427E-14
  1.22836173E-16 -3.08886062E-10  4.22574491E-01  9.56088961E-02  4.22574433E-01
  9.56088902E-02  4.22574433E-01  9.56088902E-02  9.40032382E-09 -6.19334718E-08
 -1.75838039E-08 -1.53082876E-01 -1.06668095E-10 -6.29670573E-08 -6.39075459E-08
 -5.56372959E-01  3.51201111E-11  9.68338010E-01 -9.68337851E-01 -1.05458375E-09
  1.28434727E-07  1.15454686E-10  1.00514908E-03  7.75668690E-01  1.68511458E-02
 -3.87834467E-01 -8.42554037E-03 -3.87834312E-01 -8.42553702E-03 -1.61212648E-15
  3.66132622E-14 -1.53082869E-01  1.75838019E-08 -2.00775241E-16 -3.32738313E-14
 -5.56372973E-01  6.39075520E-08  2.16804426E-16 -1.11227773E-07  1.11227700E-07
  2.92143746E-14  1.11814033E+00  1.00514918E-03 -1.15460901E-10 -8.90968486E-08
 -1.93559633E-09 -6.71748771E-01 -1.45935075E-02  6.71748860E-01  1.45935095E-02
 -4.65753741E-01  3.06493454E+00  2.54555573E-15 -9.02607306E-09  8.63554811E-05
  1.79757737E+00  4.50903363E-15 -4.45538508E-09 -2.63891322E-04 -1.86035645E+00
 -1.86035651E+00 -1.80379892E+00 -5.93541166E-15  1.88281570E-15  1.43110837E-10
  1.81753689E-01 -4.44638565E-01  1.81753660E-01 -4.44638562E-01  1.81753660E-01
 -4.44638562E-01
Orthonormal basis                          R   N=         441
  3.68506795E-02  1.73625858E-01 -9.25860780E-18 -3.90996398E-18 -2.67024726E-05
  1.90710235E-01 -1.65187233E-17 -6.75431873E-18 -4.15620202E-05  1.38172003E-01
  1.38172003E-01  1.24858677E-01 -4.53261020E-18  4.30705854E-21  2.91549300E-21
  8.34922687E-02  1.33989516E-01  8.34922687E-02  1.33989516E-01  8.34922687E-02
  1.33989516E-01  1.43089915E-16 -1.00332670E-16  2.76425532E-01 -2.15090097E-14
 -3.12289384E-17  1.30540441E-16  3.51010824E-01 -2.72705547E-14  1.05317802E-16
  3.19558468E-15 -3.21814249E-15 -2.41433124E-17 -8.95046828E-02 -7.63787127E-05
  5.88400777E-18 -2.03283020E-14 -1.69138545E-14 -2.31940867E-01 -1.89657942E-01
  2.31940867E-01  1.89657942E-01 -6.27425521E-17  6.77547932E-17  2.10050015E-14
  2.80981765E-01 -2.19491518E-16 -5.97115528E-17  2.66185121E-14  3.56395315E-01
 -2.81667158E-16 -4.28857669E-02  4.28857669E-02  9.20858150E-17 -6.71864208E-15
 -5.76939460E-18 -7.68606941E-05  2.66363145E-01  2.21075368E-01 -1.33181573E-01
 -1.10537684E-01 -1.33181573E-01 -1.10537684E-01  1.08774990E-04  2.47480654E-04
  7.75336370E-17  1.27567861E-16  5.64376573E-01  1.13395701E-04  5.87062492E-17
  2.05476140E-16  5.64376646E-01  1.26563814E-04  1.26563814E-04  2.51431043E-04
 -1.01052879E-16 -7.71665915E-20 -3.27126937E-20 -1.91778529E-04 -1.20429163E-04
 -1.91778529E-04 -1.20429163E-04 -1.91778529E-04 -1.20429163E-04  5.78914856E-16
  6.86761243E-17  2.48459588E-01  8.72574990E-17 -7.64166858E-17 -3.01356429E-17
  2.15959621E-01 -1.11183596E-16  2.57387909E-16  1.85960740E-17 -1.66479929E-16
  8.56985274E-16  8.55019732E-01  7.29630052E-04  9.30486372E-19 -2.45058027E-16
 -2.01914374E-16  1.79806835E-01 -4.07383259E-02 -1.79806835E-01  4.07383259E-02
  8.03288543E-01  2.38462347E-01 -1.06660500E-16  1.65300126E-16 -4.14010901E-04
  1.38255238E-03 -1.41182437E-16  1.79397262E-16 -2.64699459E-04 -2.95200634E-02
 -2.95200634E-02  3.14294896E-01 -8.94715521E-16 -4.27633033E-18  1.47011165E-18
 -2.08313329E-01 -1.24825046E-01 -2.08313329E-01 -1.24825046E-01 -2.08313329E-01
 -1.24825046E-01  5.76550101E-18  1.21276012E-19 -4.71982212E-15  3.99548198E-04
  9.14521875E-17 -7.08951543E-17  1.77175083E-15  3.11307821E-04 -1.05934520E-16
  2.62275974E-04 -2.62275974E-04  1.70478095E-17  8.64383405E-12 -1.01281928E-08
  9.99999643E-01 -3.53499346E-04  5.24131024E-05  1.76749673E-04 -2.62065512E-05
  1.76749673E-04 -2.62065512E-05 -1.85940631E-18  6.56662683E-17 -2.27130505E-15
  4.04689335E-12 -1.40843699E-16 -1.26960833E-16  7.59733240E-16  3.15290227E-12
  1.58787768E-16  2.65623201E-12 -2.65628152E-12 -2.63940529E-17 -8.53348478E-04
  9.99999636E-01  1.01281932E-08 -3.58034972E-12  5.30835406E-13  1.78984040E-12
 -2.66024675E-13  1.79044702E-12 -2.64603733E-13 -5.93553726E-01  2.89547527E-01
  1.08570478E-16  2.66309741E-16 -4.41175384E-04 -9.16091635E-03 -8.91069080E-17
  3.06897922E-16 -2.23183112E-04  5.02320048E-02  5.02320048E-02  6.43401688E-01
 -3.91576761E-16  5.93173692E-19 -8.00475801E-19 -2.44914780E-01 -1.48079112E-01
 -2.44914780E-01 -1.48079112E-01 -2.44914780E-01 -1.48079112E-01 -1.15914422E-16
  1.06034020E-16  1.28399820E-15  4.29894014E-01  1.10095949E-16 -4.11057595E-17
 -1.01567026E-16  2.26083623E-01 -2.42416338E-16  6.25926069E-01 -6.25926069E-01
 -1.05888778E-15 -3.96060425E-16 -2.87825083E-17 -7.65701301E-04 -3.68395882E-01
 -1.47857273E-03  1.84197941E-01  7.39286363E-04  1.84197941E-01  7.39286363E-04
 -7.87818730E-03  3.72763737E-01  4.99140056E-16  2.04603195E-16 -4.64663235E-04
 -2.37090122E-01 -6.61917451E-16 -3.79306751E-16  1.19919912E-04  5.95201007E-01
  5.95201007E-01 -4.40548256E-01 -1.36590289E-16 -1.93391549E-19  7.45798528E-18
  7.28272991E-02 -3.65528870E-01  7.28272991E-02 -3.65528870E-01  7.28272991E-02
 -3.65528870E-01  7.85143263E-17 -2.22123516E-16  1.09854953E+00 -1.36357662E-14
 -9.22097304E-17 -1.57700716E-16 -3.91600911E-01  5.09735059E-15  1.01313474E-16
  2.17066254E-15 -3.04124604E-15  6.04822824E-16 -2.23294658E-01 -1.90548225E-04
  7.41984780E-15  9.11077437E-16  5.54294901E-15  9.26308934E-02  3.77593288E-01
 -9.26308934E-02 -3.77593288E-01 -3.58698679E-17 -1.99694653E-16  1.30923688E-14
  1.03650096E+00 -1.10280381E-15  4.58829328E-16 -5.09837221E-15 -4.67474734E-01
  1.13003512E-15 -2.68984641E-01  2.68984641E-01  3.03558083E-16 -2.26429445E-15
  9.74474827E-17 -8.77659797E-05  7.55762261E-03 -4.54514394E-01 -3.77881130E-03
  2.27257197E-01 -3.77881130E-03  2.27257197E-01  1.36110333E-06  3.00906211E-04
  1.66744958E-16  1.36281512E-15  1.07801961E+00 -3.43586262E-04 -7.65733226E-17
 -5.58303897E-16 -1.07801982E+00  2.67213926E-04  2.67213926E-04 -1.64151503E-05
  1.36185695E-16  3.41275290E-16 -2.18199488E-16 -1.02253788E-04 -1.21825261E-04
 -1.02253788E-04 -1.21825261E-04 -1.02253788E-04 -1.21825261E-04  1.07410645E-01
 -2.31947714E-03  2.42720819E-16 -2.49892330E-17  2.54448095E-04 -3.26195638E-01
  2.34184468E-15 -3.88601987E-16  1.19822053E-04 -2.74734775E-01 -2.74734775E-01
  7.55303310E-01 -1.84406127E-15  2.92259840E-17  1.19919931E-16  7.69600049E-01
 -3.79378940E-01  7.69600049E-01 -3.79378940E-01  7.69600049E-01 -3.79378940E-01
 -2.31439973E-16 -8.26611070E-16  1.63203878E-01  1.49829699E-15  2.21306282E-16
  9.28901383E-16  7.20249176E-01  3.04397298E-15 -1.69305618E-16 -2.91585725E-15
  5.63722487E-15 -1.81619432E-15 -7.00000324E-01 -5.97344429E-04  7.47406071E-17
 -9.04509454E-15  3.46593201E-15  1.04489433E+00 -3.27234031E-01 -1.04489433E+00
  3.27234031E-01 -1.58747678E-16  3.11549355E-16 -3.24820788E-16 -1.87041160E-01
  7.02162418E-16  1.02474832E-15  4.17002428E-15 -6.59470471E-01 -6.68493103E-16
  7.00771959E-01 -7.00771959E-01 -3.40230987E-16 -4.30030636E-15 -2.46958620E-16
  5.63528569E-04  1.17368303E+00 -3.65622476E-01 -5.86841516E-01  1.82811238E-01
 -5.86841516E-01  1.82811238E-01 -3.68882713E-16  9.77989367E-16 -5.85626549E-01
 -5.08576721E-13 -1.56017221E-16  3.55398979E-15  2.46057620E+00  2.13928210E-12
  4.37108423E-16 -1.33481405E-13  1.31016297E-13 -1.65190856E-15 -1.67672160E-01
 -1.43082835E-04  1.59256365E-16  1.90988600E-13 -2.13395533E-12 -1.92804722E-01
  2.12554450E+00  1.92804722E-01 -2.12554450E+00  1.00504532E-15 -1.12970901E-14
  5.09364946E-13 -5.84354215E-01  5.23877574E-16  6.81423649E-15 -2.14060972E-12
  2.46268697E+00 -3.99870671E-16 -1.52405132E-01  1.52405132E-01  3.71094206E-15
  1.45511158E-13  2.66382071E-16 -1.45013817E-04  2.17546630E-01 -2.45312678E+00
 -1.08773315E-01  1.22656339E+00 -1.08773315E-01  1.22656339E+00 -3.97001611E-01
  3.60149161E+00  7.79848840E-16 -2.80412444E-15 -2.98227144E-05 -7.81576592E-01
  6.85320837E-16  1.03095054E-14  3.32604524E-04 -1.57028849E+00 -1.57028849E+00
 -1.40286118E+00 -6.76680546E-16 -3.77540614E-17 -5.49715671E-17  1.35971081E-01
  2.82146393E-01  1.35971081E-01  2.82146393E-01  1.35971081E-01  2.82146393E-01
 -3.29299795E-01  1.84932342E-01  1.59826929E-15  5.88028448E-16  2.49163169E-04
  5.06261318E+00 -4.63922596E-15 -3.93487117E-15 -1.25535933E-03 -9.12098780E-01
 -9.12098780E-01 -1.11269536E+00  6.75282415E-17  1.05357030E-15  3.01577435E-16
  1.13726970E-01 -1.54979681E+00  1.13726970E-01 -1.54979681E+00  1.13726970E-01
 -1.54979681E+00
Total SCF Density                          R   N=         231
  2.05196512E+00 -6.22503296E-02  3.16804244E-01 -1.28030422E-15 -1.77794150E-15
  4.07622425E-01  6.55599042E-09 -1.33473720E-08 -5.62128439E-16  4.07622471E-01
 -7.74518825E-06  2.27960644E-05  6.41653482E-17 -2.66820742E-11  3.59005986E-01
 -1.69297650E-01  2.89756876E-01  9.53818634E-15 -8.79518134E-09  1.82681460E-04
  2.71208407E-01  3.44315569E-16 -2.47093541E-15  1.67653796E-01 -3.98610108E-15
  1.79503194E-16  2.30280207E-15  6.89554682E-02 -2.56861712E-09 -2.46647453E-09
 -2.11685631E-15  1.67653795E-01  8.43424561E-11 -5.94932292E-10 -2.41503414E-15
  6.89554596E-02 -2.77024725E-05  7.11290052E-05  4.75938991E-16 -3.77351304E-11
  3.16951979E-01  2.08528252E-04  3.30645901E-16  6.91425111E-11  2.79824192E-01
 -2.24656599E-02  6.61084459E-03 -2.50602967E-16 -1.84664160E-02 -8.86371971E-06
  7.21243477E-03  2.52385897E-17 -7.59517665E-03 -6.64860548E-06  1.19418003E-03
 -2.24656627E-02  6.61085059E-03 -4.26735232E-16  1.84664177E-02 -8.86377069E-06
  7.21244068E-03 -3.87418591E-16  7.59517757E-03 -6.64865060E-06 -4.78978473E-04
  1.19418053E-03 -1.09921983E-02 -1.74992002E-02 -8.09975323E-16  8.35350773E-10
  4.53311280E-06 -1.52102539E-02 -2.40787086E-16  2.09630611E-10  1.26156389E-06
 -2.15411126E-04 -2.15411435E-04  1.06869126E-03  9.03783057E-16  3.35698950E-16
 -2.13231818E-02  2.76233870E-16 -8.75718624E-17 -3.25742177E-16 -8.77015627E-03
  2.12254784E-16 -9.92128369E-17 -2.18471543E-18  2.93929634E-17  2.27061845E-17
  1.11543933E-03  2.33829245E-16 -1.89942340E-16 -2.79312980E-05 -2.30872496E-17
  2.45615306E-16 -1.85199025E-16 -1.14880533E-05 -9.36650304E-18  2.16783521E-16
 -4.94572762E-18 -7.02898470E-18  9.16849978E-18  1.46111722E-06  1.91392171E-09
 -1.29447003E-11  2.16042368E-11 -4.35111857E-16 -2.79313880E-05 -1.22661805E-09
  1.94379827E-11 -1.78702815E-16 -1.14880889E-05 -1.08292749E-09  1.26536904E-06
 -1.26536805E-06 -1.16013720E-12  2.27442715E-17  3.13987293E-20  1.91393382E-09
 -6.20131041E-02  1.20149536E-01 -4.36927141E-16  2.57546686E-01 -9.45809527E-05
  1.12007213E-01 -3.22193690E-15  1.05928114E-01 -6.39543492E-05 -8.76184525E-03
  1.45733012E-02 -6.36495451E-03  2.54222069E-16 -9.04327113E-17 -1.76477832E-05
  2.09015235E-01 -1.74145956E-02  4.28563237E-02 -4.30510640E-16  2.07172144E-01
 -7.89237874E-05  3.96928267E-02 -2.32318271E-15  8.52092285E-02 -6.27312735E-05
 -8.39784132E-03  1.03730933E-02 -2.30361275E-03  1.76919879E-16 -3.83574335E-17
 -1.41959894E-05  1.47319681E-01  1.11131387E-01 -6.20131030E-02  1.20149542E-01
 -2.23041966E-01 -1.28773344E-01 -9.45811177E-05  1.12007215E-01 -9.17364451E-02
 -5.29640555E-02 -6.39544825E-05  8.73951156E-03 -2.92805757E-03 -6.36495499E-03
  1.16675730E-02  1.52833879E-05  8.82390417E-06 -3.50720067E-02 -4.90256018E-02
  2.09015236E-01 -1.74145973E-02  4.28563275E-02 -1.79416330E-01 -1.03586068E-01
 -7.89238754E-05  3.96928276E-02 -7.37933610E-02 -4.26046119E-02 -6.27313414E-05
  5.68035793E-03 -3.70510754E-03 -2.30361305E-03  9.38546752E-03  1.22940513E-05
  7.09799906E-06 -4.90256004E-02 -4.68099683E-02  1.47319679E-01  1.11131383E-01
 -6.20131030E-02  1.20149542E-01  2.23041966E-01 -1.28773344E-01 -9.45811177E-05
  1.12007215E-01  9.17364451E-02 -5.29640555E-02 -6.39544825E-05  8.73951156E-03
 -2.92805757E-03 -6.36495499E-03 -1.16675730E-02 -1.52833879E-05  8.82390417E-06
 -3.50720067E-02 -4.90256018E-02 -3.50720152E-02 -4.90256081E-02  2.09015236E-01
 -1.74145973E-02  4.28563275E-02  1.79416330E-01 -1.03586068E-01 -7.89238754E-05
  3.96928276E-02  7.37933610E-02 -4.26046119E-02 -6.27313414E-05  5.68035793E-03
 -3.70510754E-03 -2.30361305E-03 -9.38546752E-03 -1.22940513E-05  7.09799906E-06
 -4.90256004E-02 -4.68099683E-02 -4.90256081E-02 -4.68099740E-02  1.47319679E-01
  1.11131383E-01
Spin SCF Density                           R   N=         231
  1.16173440E-08 -2.50738684E-08  5.41172648E-08  6.10485593E-20 -1.31761920E-19
  0.00000000E+00  3.65312099E-14 -7.88457976E-14  1.91969696E-25  0.00000000E+00