isNO                                                              
Guess=OnlyUHF                                                         Gen                 
Number of atoms                            I                4
Info1-9                                    I   N=           9
           4           3           0           0           0         100
           3           1           2
Full Title                                 C   N=           1
xxxxxxx     
Route                                      C   N=           5
# Guess=(Save,Only,NaturalOrbitals) Geom=AllCheck ChkBasis  
Charge                                     I                0
Multiplicity                               I                2
Number of electrons                        I                9
Number of alpha electrons                  I                5
Number of beta electrons                   I                4
Number of basis functions                  I               21
Number of independent functions            I               21
Number of point charges in /Mol/           I                0
Number of translation vectors              I                0
Atomic numbers                             I   N=           4
           6           1           1           1
Nuclear charges                            R   N=           4
  6.00000000E+00  1.00000000E+00  1.00000000E+00  1.00000000E+00
Current cartesian coordinates              R   N=          12
  0.00000000E+00  0.00000000E+00  2.91017823E-04  0.00000000E+00  2.04618216E+00
 -5.82035646E-04 -1.77204573E+00 -1.02309108E+00 -5.82035646E-04  1.77204573E+00
 -1.02309108E+00 -5.82035646E-04
Number of symbols in /Mol/                 I                0
Force Field                                I                0
Atom Types                                 C   N=           4
                                                
Int Atom Types                             I   N=           4
           0           0           0           0
MM charges                                 R   N=           4
  0.00000000E+00  0.00000000E+00  0.00000000E+00  0.00000000E+00
Integer atomic weights                     I   N=           4
          12           1           1           1
Real atomic weights                        R   N=           4
  1.20000000E+01  1.00782504E+00  1.00782504E+00  1.00782504E+00
Atom fragment info                         I   N=           4
           0           0           0           0
Atom residue num                           I   N=           4
           0           0           0           0
Nuclear spins                              I   N=           4
           0           1           1           1
Nuclear ZEff                               R   N=           4
 -3.60000000E+00 -1.00000000E+00 -1.00000000E+00 -1.00000000E+00
Nuclear ZNuc                               R   N=           4
  6.00000000E+00  1.00000000E+00  1.00000000E+00  1.00000000E+00
Nuclear QMom                               R   N=           4
  0.00000000E+00  0.00000000E+00  0.00000000E+00  0.00000000E+00
Nuclear GFac                               R   N=           4
  0.00000000E+00  2.79284600E+00  2.79284600E+00  2.79284600E+00
MicOpt                                     I   N=           4
          -1          -1          -1          -1
Number of residues                         I                0
Number of secondary structures             I                0
SymInf integers                            I   N=          26
           2           2           1           1           1          -1
           1           1           0           0           0           0
           0           0           0           0           0           0
           0           0           0           0           0           0
           0           0
RotTr to input orientation                 R   N=          12
  1.00000000E+00 -1.78725434E-09  0.00000000E+00  1.78725434E-09  1.00000000E+00
  0.00000000E+00  0.00000000E+00  0.00000000E+00  1.00000000E+00 -9.86864911E-17
  2.09969553E-09  0.00000000E+00
Number of contracted shells                I               10
Number of primitive shells                 I               23
Pure/Cartesian d shells                    I                1
Pure/Cartesian f shells                    I                0
Highest angular momentum                   I                2
Largest degree of contraction              I                6
Shell types                                I   N=          10
           0          -1          -1           2           0           0
           0           0           0           0
Number of primitives per shell             I   N=          10
           6           3           1           1           3           1
           3           1           3           1
Shell to atom map                          I   N=          10
           1           1           1           1           2           2
           3           3           4           4
Primitive exponents                        R   N=          23
  3.04752488E+03  4.57369518E+02  1.03948685E+02  2.92101553E+01  9.28666296E+00
  3.16392696E+00  7.86827235E+00  1.88128854E+00  5.44249258E-01  1.68714478E-01
  8.00000000E-01  1.87311370E+01  2.82539436E+00  6.40121692E-01  1.61277759E-01
  1.87311370E+01  2.82539436E+00  6.40121692E-01  1.61277759E-01  1.87311370E+01
  2.82539436E+00  6.40121692E-01  1.61277759E-01
Contraction coefficients                   R   N=          23
  1.83473713E-03  1.40373228E-02  6.88426223E-02  2.32184443E-01  4.67941348E-01
  3.62311985E-01 -1.19332420E-01 -1.60854152E-01  1.14345644E+00  1.00000000E+00
  1.00000000E+00  3.34946043E-02  2.34726953E-01  8.13757326E-01  1.00000000E+00
  3.34946043E-02  2.34726953E-01  8.13757326E-01  1.00000000E+00  3.34946043E-02
  2.34726953E-01  8.13757326E-01  1.00000000E+00
P(S=P) Contraction coefficients            R   N=          23
  0.00000000E+00  0.00000000E+00  0.00000000E+00  0.00000000E+00  0.00000000E+00
  0.00000000E+00  6.89990666E-02  3.16423961E-01  7.44308291E-01  1.00000000E+00
  0.00000000E+00  0.00000000E+00  0.00000000E+00  0.00000000E+00  0.00000000E+00
  0.00000000E+00  0.00000000E+00  0.00000000E+00  0.00000000E+00  0.00000000E+00
  0.00000000E+00  0.00000000E+00  0.00000000E+00
Coordinates of each shell                  R   N=          30
  0.00000000E+00  0.00000000E+00  2.91017823E-04  0.00000000E+00  0.00000000E+00
  2.91017823E-04  0.00000000E+00  0.00000000E+00  2.91017823E-04  0.00000000E+00
  0.00000000E+00  2.91017823E-04  0.00000000E+00  2.04618216E+00 -5.82035646E-04
  0.00000000E+00  2.04618216E+00 -5.82035646E-04 -1.77204573E+00 -1.02309108E+00
 -5.82035646E-04 -1.77204573E+00 -1.02309108E+00 -5.82035646E-04  1.77204573E+00
 -1.02309108E+00 -5.82035646E-04  1.77204573E+00 -1.02309108E+00 -5.82035646E-04
Num ILSW                                   I              100
ILSW                                       I   N=         100
           1           1           0           0           0           0
           0           0           0           0           0          -1
           5           0           0           0           0           0
           0           0           1           0           0           0
           0           0           0           0           0           0
           0           0      100000           0          -1           0
           0           0           0           0           0           0
           0           0           0           1           0           0
           0 -2000000000           1           0           0           0
           0           0           4          52           0           0
           0           0           0           0           0           0
           0           0           0           0           0           1
           0           0           0           0           0           0
           0           0           0           0           0           0
           0           0           0           0           0           0
           0           0           0           0           0           0
           0           0           0           0
Num RLSW                                   I               52
RLSW                                       R   N=          52
  1.00000000E+00  1.00000000E+00  1.00000000E+00  1.00000000E+00  1.00000000E+00
  0.00000000E+00  0.00000000E+00  1.00000000E+00  0.00000000E+00  0.00000000E+00
  0.00000000E+00  0.00000000E+00  1.00000000E+00  0.00000000E+00  0.00000000E+00
  0.00000000E+00  0.00000000E+00  1.00000000E+00  0.00000000E+00  0.00000000E+00
  0.00000000E+00  0.00000000E+00  1.00000000E+00  0.00000000E+00  0.00000000E+00
  0.00000000E+00  0.00000000E+00  1.00000000E+00  0.00000000E+00  0.00000000E+00
  0.00000000E+00  0.00000000E+00  1.00000000E+00  0.00000000E+00  0.00000000E+00
  0.00000000E+00  0.00000000E+00  0.00000000E+00  1.00000000E+00  1.00000000E+00
  0.00000000E+00  1.00000000E+00  0.00000000E+00  0.00000000E+00  0.00000000E+00
  0.00000000E+00  0.00000000E+00  0.00000000E+00  0.00000000E+00  0.00000000E+00
  0.00000000E+00  0.00000000E+00
MxBond                                     I                3
NBond                                      I   N=           4
           3           1           1           1
IBond                                      I   N=          12
           2           3           4           1           0           0
           1           0           0           1           0           0
RBond                                      R   N=          12
  1.00000000E+00  1.00000000E+00  1.00000000E+00  1.00000000E+00  0.00000000E+00
  0.00000000E+00  1.00000000E+00  0.00000000E+00  0.00000000E+00  1.00000000E+00
  0.00000000E+00  0.00000000E+00
Virial Ratio                               R      0.000000000000000E+00
Job Status                                 I               -1
Nuclear derivative order                   I                0
External E-field                           R   N=          35
  0.00000000E+00  0.00000000E+00  0.00000000E+00  0.00000000E+00  0.00000000E+00
  0.00000000E+00  0.00000000E+00  0.00000000E+00  0.00000000E+00  0.00000000E+00
  0.00000000E+00  0.00000000E+00  0.00000000E+00  0.00000000E+00  0.00000000E+00
  0.00000000E+00  0.00000000E+00  0.00000000E+00  0.00000000E+00  0.00000000E+00
  0.00000000E+00  0.00000000E+00  0.00000000E+00  0.00000000E+00  0.00000000E+00
  0.00000000E+00  0.00000000E+00  0.00000000E+00  0.00000000E+00  0.00000000E+00
  0.00000000E+00  0.00000000E+00  0.00000000E+00  0.00000000E+00  0.00000000E+00
IOpCl                                      I                1
IROHF                                      I                0
Alpha Orbital Energies                     R   N=          21
  2.00000446E+00  1.98176400E+00  1.97650970E+00  1.97650970E+00  9.92929019E-01
  1.38329540E-02  1.37154581E-02  1.37154581E-02  5.66727002E-03  5.58882169E-03
  5.58882169E-03  4.40403509E-03  2.56759961E-03  2.56759961E-03  1.14859589E-03
  1.05539102E-03  1.05539102E-03  4.87640653E-04  4.87640653E-04  3.66788133E-04
  3.36542491E-05
Beta Orbital Energies                      R   N=          21
  2.00000446E+00  1.98176400E+00  1.97650970E+00  1.97650970E+00  9.92929019E-01
  1.38329540E-02  1.37154581E-02  1.37154581E-02  5.66727002E-03  5.58882169E-03
  5.58882169E-03  4.40403509E-03  2.56759961E-03  2.56759961E-03  1.14859589E-03
  1.05539102E-03  1.05539102E-03  4.87640653E-04  4.87640653E-04  3.66788133E-04
  3.36542491E-05
Alpha MO coefficients                      R   N=         441
  9.99210372E-01  2.03929319E-02  0.00000000E+00  2.64725312E-15  1.64584677E-06
 -1.66651834E-02  0.00000000E+00  9.69805247E-16  2.51505473E-06 -2.58951664E-03
 -2.58951664E-03 -2.46296340E-03  0.00000000E+00  0.00000000E+00 -3.89734582E-17
 -3.21015070E-03  8.81777231E-04 -3.21015070E-03  8.81777231E-04 -3.21015070E-03
  8.81777231E-04 -1.77302688E-01  3.88301859E-01  0.00000000E+00 -7.30127984E-14
 -1.51847110E-04  3.54539588E-01  0.00000000E+00 -3.72268454E-14 -7.50846149E-05
  1.54373818E-02  1.54373818E-02 -1.77755341E-02  0.00000000E+00  0.00000000E+00
  2.84207992E-17  1.50695280E-01  5.91963365E-02  1.50695280E-01  5.91963365E-02
  1.50695280E-01  5.91963365E-02 -3.51578662E-14  6.25750368E-14  0.00000000E+00
  4.47366227E-01  8.31970345E-16  4.95641500E-14  0.00000000E+00  2.01779077E-01
 -9.60679368E-16 -2.51728797E-02  2.51728797E-02  1.75532519E-15  0.00000000E+00
  0.00000000E+00 -3.43212777E-05  2.79035809E-01  2.22759071E-01 -1.39517905E-01
 -1.11379536E-01 -1.39517905E-01 -1.11379536E-01  0.00000000E+00  0.00000000E+00
  4.47366227E-01  0.00000000E+00  0.00000000E+00  0.00000000E+00  2.01779077E-01
  0.00000000E+00  0.00000000E+00  0.00000000E+00  0.00000000E+00  0.00000000E+00
 -2.90671378E-02 -3.43212777E-05  0.00000000E+00  0.00000000E+00  0.00000000E+00
 -2.41652099E-01 -1.92915015E-01  2.41652099E-01  1.92915015E-01 -1.08441956E-04
  2.36862990E-04  0.00000000E+00  8.20682113E-16  5.89345636E-01  4.88751197E-04
  0.00000000E+00 -2.72449797E-15  5.39101220E-01 -1.23558414E-05 -1.23558414E-05
  6.40910746E-06  0.00000000E+00  0.00000000E+00 -2.80377129E-18 -8.02024800E-05
 -1.03878844E-04 -8.02024800E-05 -1.03878844E-04 -8.02024800E-05 -1.03878844E-04
 -1.86825336E-01  1.11785273E+00  0.00000000E+00  1.53509160E-13 -6.00851295E-04
  4.84040804E-01  0.00000000E+00 -1.34100967E-14 -1.72850313E-04 -1.64498324E-01
 -1.64498324E-01 -1.12410647E-03  0.00000000E+00  0.00000000E+00  6.05074637E-16
 -3.94406430E-01 -3.24276099E-01 -3.94406430E-01 -3.24276099E-01 -3.94406430E-01
 -3.24276099E-01  2.89310872E-14 -1.67905613E-13  0.00000000E+00  1.02573422E+00
 -9.82865688E-16 -8.41852867E-14  0.00000000E+00 -1.75006337E-03  1.09710342E-15
 -4.64083365E-03  4.64083365E-03  5.65686428E-15  0.00000000E+00  0.00000000E+00
 -2.04673215E-05 -4.20642517E-01 -5.07950454E-01  2.10321258E-01  2.53975227E-01
  2.10321258E-01  2.53975227E-01  0.00000000E+00  0.00000000E+00  1.02573422E+00
  0.00000000E+00  0.00000000E+00  0.00000000E+00 -1.75006337E-03  0.00000000E+00
  0.00000000E+00  0.00000000E+00  0.00000000E+00  0.00000000E+00 -5.35877312E-03
 -2.04673215E-05  0.00000000E+00  0.00000000E+00  0.00000000E+00  3.64287105E-01
  4.39897997E-01 -3.64287105E-01 -4.39897997E-01 -7.33098005E-05  9.86089619E-05
  0.00000000E+00  1.17236724E-14  1.06457438E+00  5.34009397E-04  0.00000000E+00
 -3.47944354E-14 -1.09087916E+00 -3.30662768E-04 -3.30662768E-04  3.69413579E-04
  0.00000000E+00  0.00000000E+00  5.31270809E-16 -3.10222950E-04  2.47993420E-05
 -3.10222950E-04  2.47993420E-05 -3.10222950E-04  2.47993420E-05 -2.44473972E-15
 -3.91238718E-15  0.00000000E+00 -2.98800284E-01  3.75373554E-14  3.62076271E-14
  0.00000000E+00  9.69876610E-01 -3.82805151E-14  4.76973189E-01 -4.76973189E-01
  2.48706160E-15  0.00000000E+00  0.00000000E+00  2.96186645E-04 -4.74456103E-01
 -2.85949585E-02  2.37228052E-01  1.42974793E-02  2.37228052E-01  1.42974793E-02
  0.00000000E+00  0.00000000E+00 -2.98800284E-01  0.00000000E+00  0.00000000E+00
  0.00000000E+00  9.69876610E-01  0.00000000E+00  0.00000000E+00  0.00000000E+00
  0.00000000E+00  0.00000000E+00  5.50761198E-01  2.96186645E-04  0.00000000E+00
  0.00000000E+00  0.00000000E+00  4.10891039E-01  2.47639605E-02 -4.10891039E-01
 -2.47639605E-02 -2.98753864E-02  1.23999848E+00  0.00000000E+00 -4.23610685E-15
  7.23973519E-04 -1.29325120E+00  0.00000000E+00  4.70907365E-15 -4.79074299E-04
  1.55260099E-01  1.55260099E-01 -6.53698350E-01  0.00000000E+00  0.00000000E+00
 -1.19800245E-15  3.02613606E-01 -4.15907751E-02  3.02613606E-01 -4.15907751E-02
  3.02613606E-01 -4.15907751E-02  0.00000000E+00  0.00000000E+00  2.84429921E-06
  0.00000000E+00  0.00000000E+00  0.00000000E+00  1.33756040E-04  0.00000000E+00
  0.00000000E+00  0.00000000E+00  0.00000000E+00  0.00000000E+00 -8.60373557E-04
  9.99999607E-01  0.00000000E+00  0.00000000E+00  0.00000000E+00  1.92883138E-04
 -1.25853555E-04 -1.92883138E-04  1.25853555E-04 -1.95319979E-16  2.71017182E-16
  0.00000000E+00  2.84429920E-06 -5.76793782E-16  5.26163676E-15  0.00000000E+00
  1.33756040E-04  5.91056890E-16 -7.45105357E-04  7.45105357E-04 -1.56499950E-15
  0.00000000E+00  0.00000000E+00  9.99999607E-01 -2.22722263E-04  1.45323168E-04
  1.11361131E-04 -7.26615840E-05  1.11361131E-04 -7.26615840E-05  2.03287051E-02
 -3.63676880E-02  0.00000000E+00  4.15872636E-16  1.49231383E-04  5.49852678E-01
  0.00000000E+00  5.98108100E-14 -7.53588851E-05 -4.27452075E-01 -4.27452075E-01
  7.87071424E-01  0.00000000E+00  0.00000000E+00 -9.40421080E-16  6.64389831E-01
 -6.29014030E-01  6.64389831E-01 -6.29014030E-01  6.64389831E-01 -6.29014030E-01
  2.96393859E-15 -9.06626429E-14  0.00000000E+00 -2.62642149E-01  2.11537114E-15
  1.95205416E-13  0.00000000E+00  2.60069562E-01 -1.70405329E-15  7.03610166E-01
 -7.03610166E-01  5.93044903E-14  0.00000000E+00  0.00000000E+00  8.20420626E-04
  1.07226535E+00 -1.20363371E+00 -5.36132677E-01  6.01816853E-01 -5.36132677E-01
  6.01816853E-01  0.00000000E+00  0.00000000E+00  2.62642149E-01  0.00000000E+00
  0.00000000E+00  0.00000000E+00 -2.60069562E-01  0.00000000E+00  0.00000000E+00
  0.00000000E+00  0.00000000E+00  0.00000000E+00 -8.12459038E-01 -8.20420626E-04
  0.00000000E+00  0.00000000E+00  0.00000000E+00  9.28609036E-01 -1.04237737E+00
 -9.28609036E-01  1.04237737E+00  1.10827098E-13 -2.56646966E-12  0.00000000E+00
 -5.51378675E-01  4.14996070E-16  3.36607107E-12  0.00000000E+00  2.41813500E+00
 -6.37169590E-16 -5.07008451E-01  5.07008451E-01  2.06441245E-13  0.00000000E+00
  0.00000000E+00 -4.98078311E-04 -4.37900378E-02 -2.15633536E+00  2.18950189E-02
  1.07816768E+00  2.18950189E-02  1.07816768E+00  0.00000000E+00  0.00000000E+00
 -5.51378675E-01  0.00000000E+00  0.00000000E+00  0.00000000E+00  2.41813500E+00
  0.00000000E+00  0.00000000E+00  0.00000000E+00  0.00000000E+00  0.00000000E+00
 -5.85442931E-01 -4.98078311E-04  0.00000000E+00  0.00000000E+00  0.00000000E+00
  3.79232852E-02  1.86744120E+00 -3.79232852E-02 -1.86744120E+00 -1.31692914E-01
  2.61135146E+00  0.00000000E+00 -5.74732587E-13 -2.58993940E-04 -3.11788878E+00
  0.00000000E+00  2.48733405E-12  1.12164921E-03 -9.98482530E-01 -9.98482530E-01
 -3.23080613E-01  0.00000000E+00  0.00000000E+00  2.90127461E-16  6.51592539E-02
  1.10365789E+00  6.51592539E-02  1.10365789E+00  6.51592539E-02  1.10365789E+00
 -4.39515736E-01  1.88570513E+00  0.00000000E+00  3.79802685E-14  1.42053303E-04
  3.79257702E+00  0.00000000E+00 -1.39403514E-13 -7.66311221E-04 -1.58709373E+00
 -1.58709373E+00 -1.82961897E+00  0.00000000E+00  0.00000000E+00 -8.48882359E-16
  1.54428436E-01 -1.04420718E+00  1.54428436E-01 -1.04420718E+00  1.54428436E-01
 -1.04420718E+00
Beta MO coefficients                       R   N=         441
  9.99210372E-01  2.03929319E-02  0.00000000E+00  2.64725312E-15  1.64584677E-06
 -1.66651834E-02  0.00000000E+00  9.69805247E-16  2.51505473E-06 -2.58951664E-03
 -2.58951664E-03 -2.46296340E-03  0.00000000E+00  0.00000000E+00 -3.89734582E-17
 -3.21015070E-03  8.81777231E-04 -3.21015070E-03  8.81777231E-04 -3.21015070E-03
  8.81777231E-04 -1.77302688E-01  3.88301859E-01  0.00000000E+00 -7.30127984E-14
 -1.51847110E-04  3.54539588E-01  0.00000000E+00 -3.72268454E-14 -7.50846149E-05
  1.54373818E-02  1.54373818E-02 -1.77755341E-02  0.00000000E+00  0.00000000E+00
  2.84207992E-17  1.50695280E-01  5.91963365E-02  1.50695280E-01  5.91963365E-02
  1.50695280E-01  5.91963365E-02 -3.51578662E-14  6.25750368E-14  0.00000000E+00
  4.47366227E-01  8.31970345E-16  4.95641500E-14  0.00000000E+00  2.01779077E-01
 -9.60679368E-16 -2.51728797E-02  2.51728797E-02  1.75532519E-15  0.00000000E+00
  0.00000000E+00 -3.43212777E-05  2.79035809E-01  2.22759071E-01 -1.39517905E-01
 -1.11379536E-01 -1.39517905E-01 -1.11379536E-01  0.00000000E+00  0.00000000E+00
  4.47366227E-01  0.00000000E+00  0.00000000E+00  0.00000000E+00  2.01779077E-01
  0.00000000E+00  0.00000000E+00  0.00000000E+00  0.00000000E+00  0.00000000E+00
 -2.90671378E-02 -3.43212777E-05  0.00000000E+00  0.00000000E+00  0.00000000E+00
 -2.41652099E-01 -1.92915015E-01  2.41652099E-01  1.92915015E-01 -1.08441956E-04
  2.36862990E-04  0.00000000E+00  8.20682113E-16  5.89345636E-01  4.88751197E-04
  0.00000000E+00 -2.72449797E-15  5.39101220E-01 -1.23558414E-05 -1.23558414E-05
  6.40910746E-06  0.00000000E+00  0.00000000E+00 -2.80377129E-18 -8.02024800E-05
 -1.03878844E-04 -8.02024800E-05 -1.03878844E-04 -8.02024800E-05 -1.03878844E-04
 -1.86825336E-01  1.11785273E+00  0.00000000E+00  1.53509160E-13 -6.00851295E-04
  4.84040804E-01  0.00000000E+00 -1.34100967E-14 -1.72850313E-04 -1.64498324E-01
 -1.64498324E-01 -1.12410647E-03  0.00000000E+00  0.00000000E+00  6.05074637E-16
 -3.94406430E-01 -3.24276099E-01 -3.94406430E-01 -3.24276099E-01 -3.94406430E-01
 -3.24276099E-01  2.89310872E-14 -1.67905613E-13  0.00000000E+00  1.02573422E+00
 -9.82865688E-16 -8.41852867E-14  0.00000000E+00 -1.75006337E-03  1.09710342E-15
 -4.64083365E-03  4.64083365E-03  5.65686428E-15  0.00000000E+00  0.00000000E+00
 -2.04673215E-05 -4.20642517E-01 -5.07950454E-01  2.10321258E-01  2.53975227E-01
  2.10321258E-01  2.53975227E-01  0.00000000E+00  0.00000000E+00  1.02573422E+00
  0.00000000E+00  0.00000000E+00  0.00000000E+00 -1.75006337E-03  0.00000000E+00
  0.00000000E+00  0.00000000E+00  0.00000000E+00  0.00000000E+00 -5.35877312E-03
 -2.04673215E-05  0.00000000E+00  0.00000000E+00  0.00000000E+00  3.64287105E-01
  4.39897997E-01 -3.64287105E-01 -4.39897997E-01 -7.33098005E-05  9.86089619E-05
  0.00000000E+00  1.17236724E-14  1.06457438E+00  5.34009397E-04  0.00000000E+00
 -3.47944354E-14 -1.09087916E+00 -3.30662768E-04 -3.30662768E-04  3.69413579E-04
  0.00000000E+00  0.00000000E+00  5.31270809E-16 -3.10222950E-04  2.47993420E-05
 -3.10222950E-04  2.47993420E-05 -3.10222950E-04  2.47993420E-05 -2.44473972E-15
 -3.91238718E-15  0.00000000E+00 -2.98800284E-01  3.75373554E-14  3.62076271E-14
  0.00000000E+00  9.69876610E-01 -3.82805151E-14  4.76973189E-01 -4.76973189E-01
  2.48706160E-15  0.00000000E+00  0.00000000E+00  2.96186645E-04 -4.74456103E-01
 -2.85949585E-02  2.37228052E-01  1.42974793E-02  2.37228052E-01  1.42974793E-02
  0.00000000E+00  0.00000000E+00 -2.98800284E-01  0.00000000E+00  0.00000000E+00
  0.00000000E+00  9.69876610E-01  0.00000000E+00  0.00000000E+00  0.00000000E+00
  0.00000000E+00  0.00000000E+00  5.50761198E-01  2.96186645E-04  0.00000000E+00
  0.00000000E+00  0.00000000E+00  4.10891039E-01  2.47639605E-02 -4.10891039E-01
 -2.47639605E-02 -2.98753864E-02  1.23999848E+00  0.00000000E+00 -4.23610685E-15
  7.23973519E-04 -1.29325120E+00  0.00000000E+00  4.70907365E-15 -4.79074299E-04
  1.55260099E-01  1.55260099E-01 -6.53698350E-01  0.00000000E+00  0.00000000E+00
 -1.19800245E-15  3.02613606E-01 -4.15907751E-02  3.02613606E-01 -4.15907751E-02
  3.02613606E-01 -4.15907751E-02  0.00000000E+00  0.00000000E+00  2.84429921E-06
  0.00000000E+00  0.00000000E+00  0.00000000E+00  1.33756040E-04  0.00000000E+00
  0.00000000E+00  0.00000000E+00  0.00000000E+00  0.00000000E+00 -8.60373557E-04
  9.99999607E-01  0.00000000E+00  0.00000000E+00  0.00000000E+00  1.92883138E-04
 -1.25853555E-04 -1.92883138E-04  1.25853555E-04 -1.95319979E-16  2.71017182E-16
  0.00000000E+00  2.84429920E-06 -5.76793782E-16  5.26163676E-15  0.00000000E+00
  1.33756040E-04  5.91056890E-16 -7.45105357E-04  7.45105357E-04 -1.56499950E-15
  0.00000000E+00  0.00000000E+00  9.99999607E-01 -2.22722263E-04  1.45323168E-04
  1.11361131E-04 -7.26615840E-05  1.11361131E-04 -7.26615840E-05  2.03287051E-02
 -3.63676880E-02  0.00000000E+00  4.15872636E-16  1.49231383E-04  5.49852678E-01
  0.00000000E+00  5.98108100E-14 -7.53588851E-05 -4.27452075E-01 -4.27452075E-01
  7.87071424E-01  0.00000000E+00  0.00000000E+00 -9.40421080E-16  6.64389831E-01
 -6.29014030E-01  6.64389831E-01 -6.29014030E-01  6.64389831E-01 -6.29014030E-01
  2.96393859E-15 -9.06626429E-14  0.00000000E+00 -2.62642149E-01  2.11537114E-15
  1.95205416E-13  0.00000000E+00  2.60069562E-01 -1.70405329E-15  7.03610166E-01
 -7.03610166E-01  5.93044903E-14  0.00000000E+00  0.00000000E+00  8.20420626E-04
  1.07226535E+00 -1.20363371E+00 -5.36132677E-01  6.01816853E-01 -5.36132677E-01
  6.01816853E-01  0.00000000E+00  0.00000000E+00  2.62642149E-01  0.00000000E+00
  0.00000000E+00  0.00000000E+00 -2.60069562E-01  0.00000000E+00  0.00000000E+00
  0.00000000E+00  0.00000000E+00  0.00000000E+00 -8.12459038E-01 -8.20420626E-04
  0.00000000E+00  0.00000000E+00  0.00000000E+00  9.28609036E-01 -1.04237737E+00
 -9.28609036E-01  1.04237737E+00  1.10827098E-13 -2.56646966E-12  0.00000000E+00
 -5.51378675E-01  4.14996070E-16  3.36607107E-12  0.00000000E+00  2.41813500E+00
 -6.37169590E-16 -5.07008451E-01  5.07008451E-01  2.06441245E-13  0.00000000E+00
  0.00000000E+00 -4.98078311E-04 -4.37900378E-02 -2.15633536E+00  2.18950189E-02
  1.07816768E+00  2.18950189E-02  1.07816768E+00  0.00000000E+00  0.00000000E+00
 -5.51378675E-01  0.00000000E+00  0.00000000E+00  0.00000000E+00  2.41813500E+00
  0.00000000E+00  0.00000000E+00  0.00000000E+00  0.00000000E+00  0.00000000E+00
 -5.85442931E-01 -4.98078311E-04  0.00000000E+00  0.00000000E+00  0.00000000E+00
  3.79232852E-02  1.86744120E+00 -3.79232852E-02 -1.86744120E+00 -1.31692914E-01
  2.61135146E+00  0.00000000E+00 -5.74732587E-13 -2.58993940E-04 -3.11788878E+00
  0.00000000E+00  2.48733405E-12  1.12164921E-03 -9.98482530E-01 -9.98482530E-01
 -3.23080613E-01  0.00000000E+00  0.00000000E+00  2.90127461E-16  6.51592539E-02
  1.10365789E+00  6.51592539E-02  1.10365789E+00  6.51592539E-02  1.10365789E+00
 -4.39515736E-01  1.88570513E+00  0.00000000E+00  3.79802685E-14  1.42053303E-04
  3.79257702E+00  0.00000000E+00 -1.39403514E-13 -7.66311221E-04 -1.58709373E+00
 -1.58709373E+00 -1.82961897E+00  0.00000000E+00  0.00000000E+00 -8.48882359E-16
  1.54428436E-01 -1.04420718E+00  1.54428436E-01 -1.04420718E+00  1.54428436E-01
 -1.04420718E+00
Orthonormal basis                          R   N=         441
  3.68506810E-02  1.73625866E-01  0.00000000E+00 -6.95215988E-18 -2.67024708E-05
  1.90710243E-01  0.00000000E+00 -1.07919612E-17 -4.15620194E-05  1.38172009E-01
  1.38172009E-01  1.24858683E-01  0.00000000E+00  0.00000000E+00  3.35385185E-22
  8.34922658E-02  1.33989516E-01  8.34922658E-02  1.33989516E-01  8.34922658E-02
  1.33989516E-01 -1.22977520E-16 -1.35995903E-17  0.00000000E+00  2.80981755E-01
 -1.09873006E-16  3.25921861E-17  0.00000000E+00  3.56395318E-01  5.90597512E-17
 -4.28857636E-02  4.28857636E-02 -1.37438559E-16  0.00000000E+00  0.00000000E+00
 -7.68606825E-05  2.66363142E-01  2.21075380E-01 -1.33181571E-01 -1.10537690E-01
 -1.33181571E-01 -1.10537690E-01  1.08775000E-04  2.47480669E-04  0.00000000E+00
 -5.88463373E-17  5.64376573E-01  1.13395691E-04  0.00000000E+00  1.58762086E-16
  5.64376646E-01  1.26563822E-04  1.26563822E-04  2.51431054E-04  0.00000000E+00
  0.00000000E+00  3.29256817E-20 -1.91778547E-04 -1.20429185E-04 -1.91778547E-04
 -1.20429185E-04 -1.91778547E-04 -1.20429185E-04  8.03288337E-01  2.38462448E-01
  0.00000000E+00  1.13106485E-16 -4.14011084E-04  1.38254513E-03  0.00000000E+00
  2.47141548E-16 -2.64699565E-04 -2.95200057E-02 -2.95200057E-02  3.14295044E-01
  0.00000000E+00  0.00000000E+00  2.29697983E-18 -2.08313420E-01 -1.24825112E-01
 -2.08313420E-01 -1.24825112E-01 -2.08313420E-01 -1.24825112E-01  1.32481760E-16
 -6.70478699E-17  0.00000000E+00  3.99548202E-04 -8.60092458E-19 -2.26155455E-17
  0.00000000E+00  3.11307765E-04 -1.72542916E-18  2.62275925E-04 -2.62275925E-04
 -1.32435554E-16  0.00000000E+00  0.00000000E+00  9.99999643E-01 -3.53499311E-04
  5.24130644E-05  1.76749655E-04 -2.62065322E-05  1.76749655E-04 -2.62065322E-05
 -5.93554004E-01  2.89547463E-01  0.00000000E+00  2.25063091E-16 -4.41175291E-04
 -9.16092829E-03  0.00000000E+00  3.20953027E-16 -2.23183050E-04  5.02320826E-02
  5.02320826E-02  6.43401487E-01  0.00000000E+00  0.00000000E+00  2.44210935E-16
 -2.44914720E-01 -1.48079100E-01 -2.44914720E-01 -1.48079100E-01 -2.44914720E-01
 -1.48079100E-01 -8.79621925E-17 -4.04414067E-16  0.00000000E+00  4.29894111E-01
 -2.60075577E-17 -3.52079648E-17  0.00000000E+00  2.26083591E-01 -7.32417758E-17
  6.25926035E-01 -6.25926035E-01 -5.07939045E-16  0.00000000E+00  0.00000000E+00
 -7.65701223E-04 -3.68395894E-01 -1.47862201E-03  1.84197947E-01  7.39311006E-04
  1.84197947E-01  7.39311006E-04 -7.87818861E-03  3.72763661E-01  0.00000000E+00
 -8.15518621E-17 -4.64663138E-04 -2.37090087E-01  0.00000000E+00  1.90271690E-16
  1.19919889E-04  5.95201027E-01  5.95201027E-01 -4.40548449E-01  0.00000000E+00
  0.00000000E+00 -1.89868642E-20  7.28272892E-02 -3.65528810E-01  7.28272892E-02
 -3.65528810E-01  7.28272892E-02 -3.65528810E-01 -2.00065173E-17  5.58537816E-17
  0.00000000E+00  1.03650092E+00 -2.43369091E-16  7.39212225E-17  0.00000000E+00
 -4.67474659E-01  4.37997694E-16 -2.68984792E-01  2.68984792E-01  8.76161665E-17
  0.00000000E+00  0.00000000E+00 -8.77660127E-05  7.55758149E-03 -4.54514363E-01
 -3.77879075E-03  2.27257181E-01 -3.77879075E-03  2.27257181E-01  1.36109493E-06
  3.00906161E-04  0.00000000E+00  5.15125111E-16  1.07801961E+00 -3.43586221E-04
  0.00000000E+00 -1.79756993E-17 -1.07801982E+00  2.67213901E-04  2.67213901E-04
 -1.64151971E-05  0.00000000E+00  0.00000000E+00 -1.14507524E-18 -1.02253816E-04
 -1.21825219E-04 -1.02253816E-04 -1.21825219E-04 -1.02253816E-04 -1.21825219E-04
  1.07410648E-01 -2.31934204E-03  0.00000000E+00  1.94263474E-16  2.54448011E-04
 -3.26195656E-01  0.00000000E+00  5.03003624E-16  1.19821966E-04 -2.74734664E-01
 -2.74734664E-01  7.55303276E-01  0.00000000E+00  0.00000000E+00 -9.87915609E-20
  7.69599995E-01 -3.79379002E-01  7.69599995E-01 -3.79379002E-01  7.69599995E-01
 -3.79379002E-01  5.06511516E-17  2.47827118E-16  0.00000000E+00 -1.87040925E-01
  3.97978758E-16 -3.72879609E-16  0.00000000E+00 -6.59470507E-01 -2.38104726E-16
  7.00771878E-01 -7.00771878E-01 -3.00472308E-17  0.00000000E+00  0.00000000E+00