xxxx                                                                    
SP        RB3LYP                                                      6-31G(d,p)          
Number of atoms                            I                3
Info1-9                                    I   N=           9
          11          10           0           0           0         110
           1          18        -502
Full Title                                 C   N=           1
xxxx        
Route                                      C   N=           2
# b3lyp/6-31g(d,p)      
Charge                                     I                0
Multiplicity                               I                1
Number of electrons                        I               10
Number of alpha electrons                  I                5
Number of beta electrons                   I                5
Number of basis functions                  I               25
Number of independent functions            I               25
Number of point charges in /Mol/           I                0
Number of translation vectors              I                0
Atomic numbers                             I   N=           3
           8           1           1
Nuclear charges                            R   N=           3
  8.00000000E+00  1.00000000E+00  1.00000000E+00
Current cartesian coordinates              R   N=           9
  1.37930598E-17  1.37930598E-17  2.25257754E-01  2.08435193E-16  1.43501202E+00
 -9.01031054E-01 -4.94517960E-16 -1.43501202E+00 -9.01031054E-01
Number of symbols in /Mol/                 I                0
Force Field                                I                0
Atom Types                                 C   N=           3
                                    
Int Atom Types                             I   N=           3
           0           0           0
MM charges                                 R   N=           3
  0.00000000E+00  0.00000000E+00  0.00000000E+00
Integer atomic weights                     I   N=           3
          16           1           1
Real atomic weights                        R   N=           3
  1.59949146E+01  1.00782504E+00  1.00782504E+00
Atom fragment info                         I   N=           3
           0           0           0
Atom residue num                           I   N=           3
           0           0           0
Nuclear spins                              I   N=           3
           0           1           1
Nuclear ZEff                               R   N=           3
 -5.60000000E+00 -1.00000000E+00 -1.00000000E+00
Nuclear ZNuc                               R   N=           3
  8.00000000E+00  1.00000000E+00  1.00000000E+00
Nuclear QMom                               R   N=           3
  0.00000000E+00  0.00000000E+00  0.00000000E+00
Nuclear GFac                               R   N=           3
  0.00000000E+00  2.79284600E+00  2.79284600E+00
MicOpt                                     I   N=           3
          -1          -1          -1
Number of residues                         I                0
Number of secondary structures             I                0
SymInf integers                            I   N=          26
           2           4           1           1           1          -1
          -1           1          -1           1           1           1
          -1           1           0           0           0           0
           0           0           0           0           0           0
           0           0
RotTr to input orientation                 R   N=          12
  1.00000000E+00 -1.83697020E-16 -6.12323400E-17  1.83697020E-16  1.00000000E+00
 -6.12323400E-17  6.12323400E-17  6.12323400E-17  1.00000000E+00  0.00000000E+00
  0.00000000E+00 -7.55890448E-09
Number of contracted shells                I               10
Number of primitive shells                 I               21
Pure/Cartesian d shells                    I                1
Pure/Cartesian f shells                    I                0
Highest angular momentum                   I                2
Largest degree of contraction              I                6
Shell types                                I   N=          10
           0          -1          -1           2           0           0
           1           0           0           1
Number of primitives per shell             I   N=          10
           6           3           1           1           3           1
           1           3           1           1
Shell to atom map                          I   N=          10
           1           1           1           1           2           2
           2           3           3           3
Primitive exponents                        R   N=          21
  5.48467166E+03  8.25234946E+02  1.88046958E+02  5.29645000E+01  1.68975704E+01
  5.79963534E+00  1.55396162E+01  3.59993359E+00  1.01376175E+00  2.70005823E-01
  8.00000000E-01  1.87311370E+01  2.82539436E+00  6.40121692E-01  1.61277759E-01
  1.10000000E+00  1.87311370E+01  2.82539436E+00  6.40121692E-01  1.61277759E-01
  1.10000000E+00
Contraction coefficients                   R   N=          21
  1.83107443E-03  1.39501722E-02  6.84450781E-02  2.32714336E-01  4.70192898E-01
  3.58520853E-01 -1.10777550E-01 -1.48026263E-01  1.13076702E+00  1.00000000E+00
  1.00000000E+00  3.34946043E-02  2.34726953E-01  8.13757326E-01  1.00000000E+00
  1.00000000E+00  3.34946043E-02  2.34726953E-01  8.13757326E-01  1.00000000E+00
  1.00000000E+00
P(S=P) Contraction coefficients            R   N=          21
  0.00000000E+00  0.00000000E+00  0.00000000E+00  0.00000000E+00  0.00000000E+00
  0.00000000E+00  7.08742682E-02  3.39752839E-01  7.27158577E-01  1.00000000E+00
  0.00000000E+00  0.00000000E+00  0.00000000E+00  0.00000000E+00  0.00000000E+00
  0.00000000E+00  0.00000000E+00  0.00000000E+00  0.00000000E+00  0.00000000E+00
  0.00000000E+00
Coordinates of each shell                  R   N=          30
  6.94129069E-34 -1.38825814E-33  2.25257762E-01  6.94129069E-34 -1.38825814E-33
  2.25257762E-01  6.94129069E-34 -1.38825814E-33  2.25257762E-01  6.94129069E-34
 -1.38825814E-33  2.25257762E-01  0.00000000E+00  1.43501202E+00 -9.01031046E-01
  0.00000000E+00  1.43501202E+00 -9.01031046E-01  0.00000000E+00  1.43501202E+00
 -9.01031046E-01 -1.75738288E-16 -1.43501202E+00 -9.01031046E-01 -1.75738288E-16
 -1.43501202E+00 -9.01031046E-01 -1.75738288E-16 -1.43501202E+00 -9.01031046E-01
Num ILSW                                   I              100
ILSW                                       I   N=         100
           0           1           0           0           2           0
           0           0           0           0         402          -1
           5           0           0           0           0           0
           0           0           1           0           0           0
           1           0           0           0           0           0
           0           0      100000           0          -1           0
           0           0           0           0           0           0
           0           0           0           1           0           0
           0 -2000000000           1           0           0           0
           0           0           4          52           0           0
           0           0           5           0           0           0
           0           0           0           0           0           1
           0           0           0           0           0           0
           0           0           0           0           0           0
           0           0           0           0           0           0
           0           0           0           0           0           0
           0           0           0           0
Num RLSW                                   I               52
RLSW                                       R   N=          52
  8.00000000E-01  7.20000000E-01  1.00000000E+00  8.10000000E-01  2.00000000E-01
  0.00000000E+00  0.00000000E+00  1.00000000E+00  0.00000000E+00  0.00000000E+00
  0.00000000E+00  0.00000000E+00  1.00000000E+00  0.00000000E+00  0.00000000E+00
  0.00000000E+00  0.00000000E+00  1.00000000E+00  0.00000000E+00  0.00000000E+00
  0.00000000E+00  0.00000000E+00  1.00000000E+00  0.00000000E+00  0.00000000E+00
  0.00000000E+00  0.00000000E+00  1.00000000E+00  0.00000000E+00  0.00000000E+00
  0.00000000E+00  0.00000000E+00  1.00000000E+00  0.00000000E+00  0.00000000E+00
  0.00000000E+00  0.00000000E+00  0.00000000E+00  1.00000000E+00  1.00000000E+00
  0.00000000E+00  1.00000000E+00  0.00000000E+00  0.00000000E+00  0.00000000E+00
  0.00000000E+00  0.00000000E+00  0.00000000E+00  0.00000000E+00  0.00000000E+00
  0.00000000E+00  0.00000000E+00
MxBond                                     I                2
NBond                                      I   N=           3
           2           1           1
IBond                                      I   N=           6
           2           3           1           0           1           0
RBond                                      R   N=           6
  1.00000000E+00  1.00000000E+00  1.00000000E+00  0.00000000E+00  1.00000000E+00
  0.00000000E+00
Virial Ratio                               R      2.007826024001526E+00
SCF Energy                                 R     -7.641973741713784E+01
Total Energy                               R     -7.641973741713784E+01
RMS Density                                R      1.594041905655974E-09
Job Status                                 I                1
Nuclear derivative order                   I                0
External E-field                           R   N=          35
  0.00000000E+00  0.00000000E+00  0.00000000E+00  0.00000000E+00  0.00000000E+00
  0.00000000E+00  0.00000000E+00  0.00000000E+00  0.00000000E+00  0.00000000E+00
  0.00000000E+00  0.00000000E+00  0.00000000E+00  0.00000000E+00  0.00000000E+00
  0.00000000E+00  0.00000000E+00  0.00000000E+00  0.00000000E+00  0.00000000E+00
  0.00000000E+00  0.00000000E+00  0.00000000E+00  0.00000000E+00  0.00000000E+00
  0.00000000E+00  0.00000000E+00  0.00000000E+00  0.00000000E+00  0.00000000E+00
  0.00000000E+00  0.00000000E+00  0.00000000E+00  0.00000000E+00  0.00000000E+00
IOpCl                                      I                0
IROHF                                      I                0
Alpha Orbital Energies                     R   N=          25
 -1.91380051E+01 -9.97302476E-01 -5.14988060E-01 -3.71010920E-01 -2.91959331E-01
  6.53427115E-02  1.51222183E-01  7.56858380E-01  8.05490545E-01  8.91352156E-01
  8.93519648E-01  1.01556763E+00  1.17535174E+00  1.52949629E+00  1.53769957E+00
  1.64364971E+00  2.23866995E+00  2.26815748E+00  2.45004047E+00  2.64101043E+00
  2.66671111E+00  3.02782666E+00  3.30716676E+00  3.53149790E+00  3.69291839E+00
Alpha MO coefficients                      R   N=         625
  9.92881006E-01  2.62253055E-02  0.00000000E+00  0.00000000E+00 -1.24135189E-03
  1.02912549E-02  0.00000000E+00  0.00000000E+00 -2.21600656E-04 -7.74318335E-03
 -7.49356883E-03 -7.54678101E-03  0.00000000E+00  0.00000000E+00  0.00000000E+00
  1.48155166E-04 -1.14875681E-03  0.00000000E+00  2.75384736E-04 -1.68714404E-04
  1.48155166E-04 -1.14875681E-03  0.00000000E+00 -2.75384736E-04 -1.68714404E-04
 -2.10486403E-01  4.67609820E-01  0.00000000E+00  0.00000000E+00 -1.19179225E-01
  4.22159120E-01  0.00000000E+00  0.00000000E+00 -4.11203636E-02 -8.08052315E-03
  1.85546253E-04  2.98302606E-03  0.00000000E+00  0.00000000E+00  0.00000000E+00
  1.51979137E-01  1.77544179E-02  0.00000000E+00 -2.10520908E-02  1.24388445E-02
  1.51979137E-01  1.77544179E-02  0.00000000E+00  2.10520908E-02  1.24388445E-02
  0.00000000E+00  0.00000000E+00  0.00000000E+00  5.13990749E-01  0.00000000E+00
  0.00000000E+00  0.00000000E+00  2.47224417E-01  0.00000000E+00  0.00000000E+00
  0.00000000E+00  0.00000000E+00  0.00000000E+00  0.00000000E+00 -2.88364924E-02
  2.44125367E-01  1.57237968E-01  0.00000000E+00 -6.10383340E-03  1.58444918E-02
 -2.44125367E-01 -1.57237968E-01  0.00000000E+00 -6.10383340E-03 -1.58444918E-02
 -8.76250911E-02  1.74161571E-01  0.00000000E+00  0.00000000E+00  5.52658640E-01
  4.16344319E-01  0.00000000E+00  0.00000000E+00  3.64054219E-01 -1.44540491E-03
 -4.44075470E-03 -4.62043258E-02  0.00000000E+00  0.00000000E+00  0.00000000E+00
 -1.44225760E-01 -1.16337751E-01  0.00000000E+00  1.02713799E-02  1.05997189E-02
 -1.44225760E-01 -1.16337751E-01  0.00000000E+00 -1.02713799E-02  1.05997189E-02
  0.00000000E+00  0.00000000E+00  6.43966752E-01  0.00000000E+00  0.00000000E+00
  0.00000000E+00  4.94567821E-01  0.00000000E+00  0.00000000E+00  0.00000000E+00
  0.00000000E+00  0.00000000E+00  0.00000000E+00 -2.90834043E-02  0.00000000E+00
  0.00000000E+00  0.00000000E+00  2.09876191E-02  0.00000000E+00  0.00000000E+00
  0.00000000E+00  0.00000000E+00  2.09876191E-02  0.00000000E+00  0.00000000E+00
 -1.01135675E-01  1.17657587E-01  0.00000000E+00  0.00000000E+00 -2.75956798E-01
  1.26117973E+00  0.00000000E+00  0.00000000E+00 -4.69977726E-01 -5.75957157E-02
 -5.17810646E-02 -3.24236241E-02  0.00000000E+00  0.00000000E+00  0.00000000E+00
 -9.03161114E-02 -9.69297408E-01  0.00000000E+00 -7.04165448E-03  4.34409702E-03
 -9.03161114E-02 -9.69297408E-01  0.00000000E+00  7.04165448E-03  4.34409702E-03
  0.00000000E+00  0.00000000E+00  0.00000000E+00 -4.10626235E-01  0.00000000E+00
  0.00000000E+00  0.00000000E+00 -7.58490751E-01  0.00000000E+00  0.00000000E+00
  0.00000000E+00  0.00000000E+00  0.00000000E+00  0.00000000E+00  1.83796462E-02
  1.03595373E-01  1.28646764E+00  0.00000000E+00 -2.81425559E-03 -3.76188795E-03
 -1.03595373E-01 -1.28646764E+00  0.00000000E+00 -2.81425559E-03  3.76188795E-03
  0.00000000E+00  0.00000000E+00  0.00000000E+00  2.02309228E-01  0.00000000E+00
  0.00000000E+00  0.00000000E+00  1.66414923E-01  0.00000000E+00  0.00000000E+00
  0.00000000E+00  0.00000000E+00  0.00000000E+00  0.00000000E+00  2.65600996E-01
 -7.70844651E-01  7.95393718E-01  0.00000000E+00 -4.95442170E-02  9.95698178E-02
  7.70844651E-01 -7.95393718E-01  0.00000000E+00 -4.95442170E-02 -9.95698178E-02
  3.72569292E-02 -8.79927444E-02  0.00000000E+00  0.00000000E+00  6.47666160E-01
  2.38966738E-01  0.00000000E+00  0.00000000E+00 -5.57818211E-01 -1.08723616E-01
  2.62147362E-01  9.42087245E-02  0.00000000E+00  0.00000000E+00  0.00000000E+00
  5.67036330E-01 -6.01502648E-01  0.00000000E+00  1.64390884E-01 -6.81811134E-02
  5.67036330E-01 -6.01502648E-01  0.00000000E+00 -1.64390884E-01 -6.81811134E-02
  0.00000000E+00  0.00000000E+00 -9.59669946E-01  0.00000000E+00  0.00000000E+00
  0.00000000E+00  1.03730185E+00  0.00000000E+00  0.00000000E+00  0.00000000E+00
  0.00000000E+00  0.00000000E+00  0.00000000E+00 -1.60400030E-02  0.00000000E+00
  0.00000000E+00  0.00000000E+00  2.04762611E-03  0.00000000E+00  0.00000000E+00
  0.00000000E+00  0.00000000E+00  2.04762611E-03  0.00000000E+00  0.00000000E+00
  1.30689993E-02 -8.16612648E-01  0.00000000E+00  0.00000000E+00 -5.30042937E-01
  1.34992575E+00  0.00000000E+00  0.00000000E+00  8.07197614E-01 -3.23570201E-01
 -1.47608737E-01 -2.72326686E-01  0.00000000E+00  0.00000000E+00  0.00000000E+00
  5.02306330E-01 -3.81368973E-01  0.00000000E+00  1.97797074E-02  3.72108397E-02
  5.02306330E-01 -3.81368973E-01  0.00000000E+00 -1.97797074E-02  3.72108397E-02
  0.00000000E+00  0.00000000E+00  0.00000000E+00 -8.64451532E-01  0.00000000E+00
  0.00000000E+00  0.00000000E+00  1.79559236E+00  0.00000000E+00  0.00000000E+00
  0.00000000E+00  0.00000000E+00  0.00000000E+00  0.00000000E+00 -9.09316628E-02
 -1.52402990E-01 -9.63602936E-01  0.00000000E+00  1.44816428E-01 -9.01749037E-02
  1.52402990E-01  9.63602936E-01  0.00000000E+00  1.44816428E-01  9.01749037E-02
 -7.68222052E-02 -1.42552175E+00  0.00000000E+00  0.00000000E+00  3.51437977E-01
  3.52737861E+00  0.00000000E+00  0.00000000E+00 -9.90378508E-01 -2.77728404E-01
 -6.25749889E-01 -3.33466790E-01  0.00000000E+00  0.00000000E+00  0.00000000E+00
 -3.26599976E-01 -7.70231404E-01  0.00000000E+00 -3.37128188E-02 -1.10035418E-01
 -3.26599976E-01 -7.70231404E-01  0.00000000E+00  3.37128188E-02 -1.10035418E-01
  0.00000000E+00  0.00000000E+00  0.00000000E+00  0.00000000E+00  0.00000000E+00
  0.00000000E+00  0.00000000E+00  0.00000000E+00  0.00000000E+00  0.00000000E+00
  0.00000000E+00  0.00000000E+00  6.80091233E-01  0.00000000E+00  0.00000000E+00
  0.00000000E+00  0.00000000E+00  3.50702939E-01  0.00000000E+00  0.00000000E+00
  0.00000000E+00  0.00000000E+00 -3.50702939E-01  0.00000000E+00  0.00000000E+00
 -2.81026680E-02 -3.23886163E-01  0.00000000E+00  0.00000000E+00  6.20710347E-02
  9.01858451E-01  0.00000000E+00  0.00000000E+00 -5.19632072E-01  2.45605977E-01
  2.55723716E-01 -7.88632359E-01  0.00000000E+00  0.00000000E+00  0.00000000E+00
 -2.37546422E-01 -1.56525894E-01  0.00000000E+00  1.82601707E-01  2.48210422E-01
 -2.37546422E-01 -1.56525894E-01  0.00000000E+00 -1.82601707E-01  2.48210422E-01
  0.00000000E+00  0.00000000E+00  1.49032124E-02  0.00000000E+00  0.00000000E+00
  0.00000000E+00  2.05006586E-01  0.00000000E+00  0.00000000E+00  0.00000000E+00
  0.00000000E+00  0.00000000E+00  0.00000000E+00  7.83570575E-01  0.00000000E+00
  0.00000000E+00  0.00000000E+00 -3.00708021E-01  0.00000000E+00  0.00000000E+00
  0.00000000E+00  0.00000000E+00 -3.00708021E-01  0.00000000E+00  0.00000000E+00
 -4.70818094E-02 -5.67625229E-01  0.00000000E+00  0.00000000E+00  2.08779609E-01
  1.36591521E+00  0.00000000E+00  0.00000000E+00 -6.36940971E-01 -1.06652664E+00
  5.21378033E-01  3.36622713E-02  0.00000000E+00  0.00000000E+00  0.00000000E+00
 -6.24222006E-01 -9.22075415E-02  0.00000000E+00 -1.61293028E-01  1.58237993E-01
 -6.24222006E-01 -9.22075415E-02  0.00000000E+00  1.61293028E-01  1.58237993E-01
  0.00000000E+00  0.00000000E+00  0.00000000E+00  3.79821610E-02  0.00000000E+00
  0.00000000E+00  0.00000000E+00 -4.78833979E-01  0.00000000E+00  0.00000000E+00
  0.00000000E+00  0.00000000E+00  0.00000000E+00  0.00000000E+00 -1.45241519E-01
  1.04161048E-01  1.03032951E-01  0.00000000E+00  4.79715394E-01  5.82426983E-01
 -1.04161048E-01 -1.03032951E-01  0.00000000E+00  4.79715394E-01 -5.82426983E-01
  0.00000000E+00  0.00000000E+00  0.00000000E+00  3.40715838E-01  0.00000000E+00
  0.00000000E+00  0.00000000E+00 -4.82437783E-01  0.00000000E+00  0.00000000E+00
  0.00000000E+00  0.00000000E+00  0.00000000E+00  0.00000000E+00  7.97866940E-01
  5.38380125E-01 -2.02058023E-01  0.00000000E+00  3.31975252E-01 -2.33124798E-01
 -5.38380125E-01  2.02058023E-01  0.00000000E+00  3.31975252E-01  2.33124798E-01
  0.00000000E+00  0.00000000E+00  0.00000000E+00  0.00000000E+00  0.00000000E+00
  0.00000000E+00  0.00000000E+00  0.00000000E+00  0.00000000E+00  0.00000000E+00
  0.00000000E+00  0.00000000E+00  8.80556964E-01  0.00000000E+00  0.00000000E+00
  0.00000000E+00  0.00000000E+00 -7.09015297E-01  0.00000000E+00  0.00000000E+00
  0.00000000E+00  0.00000000E+00  7.09015297E-01  0.00000000E+00  0.00000000E+00
  0.00000000E+00  0.00000000E+00 -1.33964582E-02  0.00000000E+00  0.00000000E+00
  0.00000000E+00 -4.17594373E-01  0.00000000E+00  0.00000000E+00  0.00000000E+00
  0.00000000E+00  0.00000000E+00  0.00000000E+00  7.36561692E-01  0.00000000E+00
  0.00000000E+00  0.00000000E+00  7.62911165E-01  0.00000000E+00  0.00000000E+00
  0.00000000E+00  0.00000000E+00  7.62911165E-01  0.00000000E+00  0.00000000E+00
  2.05078282E-02 -1.81735960E-01  0.00000000E+00  0.00000000E+00  4.57124012E-02
  1.31917606E-01  0.00000000E+00  0.00000000E+00 -4.61362602E-01 -2.06841819E-02
 -7.49823947E-01  9.48106982E-01  0.00000000E+00  0.00000000E+00  0.00000000E+00
 -9.06562393E-02 -4.49800295E-02  0.00000000E+00  4.48128323E-01  6.76502002E-01
 -9.06562393E-02 -4.49800295E-02  0.00000000E+00 -4.48128323E-01  6.76502002E-01
 -2.46808929E-01  1.99592321E-01  0.00000000E+00  0.00000000E+00 -4.37039650E-01
  2.84638261E+00  0.00000000E+00  0.00000000E+00 -8.59435298E-01 -1.19131538E+00
 -4.19633859E-02 -3.01739705E-01  0.00000000E+00  0.00000000E+00  0.00000000E+00
 -7.80919065E-01 -5.75356476E-01  0.00000000E+00  7.65073665E-01 -4.58355885E-01
 -7.80919065E-01 -5.75356476E-01  0.00000000E+00 -7.65073665E-01 -4.58355885E-01
  0.00000000E+00  0.00000000E+00  0.00000000E+00 -6.92345347E-01  0.00000000E+00
  0.00000000E+00  0.00000000E+00 -1.34216274E+00  0.00000000E+00  0.00000000E+00
  0.00000000E+00  0.00000000E+00  0.00000000E+00  0.00000000E+00  1.48339284E+00
  1.18635986E+00  5.37125433E-01  0.00000000E+00 -8.06787527E-01  6.99915070E-01
 -1.18635986E+00 -5.37125433E-01  0.00000000E+00 -8.06787527E-01 -6.99915070E-01
 -4.02351272E-01  1.70601056E-01  0.00000000E+00  0.00000000E+00  4.58410846E-01
  2.59939381E+00  0.00000000E+00  0.00000000E+00  1.19459357E-01 -1.13979711E+00
 -1.93843510E+00 -1.57744391E+00  0.00000000E+00  0.00000000E+00  0.00000000E+00
  6.58804024E-01 -2.79966459E-01  0.00000000E+00 -4.86118798E-01  4.29495340E-01
  6.58804024E-01 -2.79966459E-01  0.00000000E+00  4.86118798E-01  4.29495340E-01
Orthonormal basis                          R   N=         625
  3.12751177E-02  1.57637252E-01  0.00000000E+00  0.00000000E+00 -3.24892388E-02
  1.97718621E-01  0.00000000E+00  0.00000000E+00 -5.18433417E-02  1.31165257E-01
  1.50807548E-01  1.44726423E-01  0.00000000E+00  0.00000000E+00  0.00000000E+00
  1.09132446E-01  1.50772012E-01  0.00000000E+00 -5.65215992E-02  3.35015513E-02
  1.09132446E-01  1.50772012E-01  0.00000000E+00  5.65215992E-02  3.35015513E-02
  5.13636456E-02  1.56679682E-01  0.00000000E+00  0.00000000E+00  3.43748183E-01
  1.17610300E-01  0.00000000E+00  0.00000000E+00  4.40065530E-01  1.27793472E-01
  1.40094643E-01  2.69353058E-02  0.00000000E+00  0.00000000E+00  0.00000000E+00
 -1.43378251E-01 -8.62016533E-02  0.00000000E+00  9.90258870E-02  1.65939641E-01
 -1.43378251E-01 -8.62016533E-02  0.00000000E+00 -9.90258870E-02  1.65939641E-01
 -1.23295931E-01 -2.04064119E-01  0.00000000E+00  0.00000000E+00  2.73875656E-01
  2.02976819E-02  0.00000000E+00  0.00000000E+00 -1.77422803E-02 -3.66354622E-02
  5.62181814E-02 -1.48217838E-01  0.00000000E+00  0.00000000E+00  0.00000000E+00
  1.92218440E-01  2.34776117E-01  0.00000000E+00  4.19953758E-01 -1.12078104E-01
  1.92218440E-01  2.34776117E-01  0.00000000E+00 -4.19953758E-01 -1.12078104E-01
 -2.81708008E-02 -3.44330236E-02  0.00000000E+00  0.00000000E+00 -3.11838007E-01
 -8.03001430E-02  0.00000000E+00  0.00000000E+00 -1.24893406E-01 -1.20619601E-01
  3.49306141E-01 -3.39914402E-01  0.00000000E+00  0.00000000E+00  0.00000000E+00
  8.10300954E-02 -5.52735110E-02  0.00000000E+00  1.10926635E-01  4.39354319E-01
  8.10300954E-02 -5.52735110E-02  0.00000000E+00 -1.10926635E-01  4.39354319E-01
  9.53770813E-01  9.88669640E-02  0.00000000E+00  0.00000000E+00  1.02571087E-02
  2.67614438E-04  0.00000000E+00  0.00000000E+00 -7.82121399E-02 -9.13008268E-02
 -9.65000416E-02 -1.62072346E-01  0.00000000E+00  0.00000000E+00  0.00000000E+00
  2.26502067E-02  3.01006201E-02  0.00000000E+00  9.64709739E-02 -3.46147269E-02
  2.26502067E-02  3.01006201E-02  0.00000000E+00 -9.64709739E-02 -3.46147269E-02
 -5.85300133E-02  6.90932255E-02  0.00000000E+00  0.00000000E+00 -2.59705553E-01
  7.14905431E-02  0.00000000E+00  0.00000000E+00 -1.28552336E-01  8.94371133E-01
 -3.17224794E-01 -4.49577651E-01  0.00000000E+00  0.00000000E+00  0.00000000E+00
 -2.15833804E-01  6.54452199E-02  0.00000000E+00  1.28224917E-01 -1.24448362E-02
 -2.15833804E-01  6.54452199E-02  0.00000000E+00 -1.28224917E-01 -1.24448362E-02
 -8.98493552E-02  3.43739231E-01  0.00000000E+00  0.00000000E+00  9.13077924E-01
 -1.87070270E-01  0.00000000E+00  0.00000000E+00 -7.51123331E-01  1.01525771E-01
  3.38742725E-01 -5.29762727E-01  0.00000000E+00  0.00000000E+00  0.00000000E+00
  1.05847295E-02 -1.41561806E-01  0.00000000E+00 -2.92421743E-01 -6.08138370E-02
  1.05847295E-02 -1.41561806E-01  0.00000000E+00  2.92421743E-01 -6.08138370E-02
  1.39181405E-01 -8.74768998E-01  0.00000000E+00  0.00000000E+00  2.32720304E-01
  7.86939774E-02  0.00000000E+00  0.00000000E+00  1.18845299E-01 -1.12298092E-01
  1.30984268E-01 -2.55741017E-01  0.00000000E+00  0.00000000E+00  0.00000000E+00
 -4.54257880E-01  6.64908371E-01  0.00000000E+00 -4.39572536E-01  1.88851479E-01
 -4.54257880E-01  6.64908371E-01  0.00000000E+00  4.39572536E-01  1.88851479E-01
  1.11199303E-01 -3.42834677E-01  0.00000000E+00  0.00000000E+00 -3.48959217E-01
  1.48683401E-01  0.00000000E+00  0.00000000E+00  6.59795386E-01  2.37300534E-01
  9.29357150E-01 -6.32144785E-01  0.00000000E+00  0.00000000E+00  0.00000000E+00
  2.48812507E-01 -2.52192568E-01  0.00000000E+00 -2.45511089E-01 -6.23373978E-01
  2.48812507E-01 -2.52192568E-01  0.00000000E+00  2.45511089E-01 -6.23373978E-01
 -3.19763730E-01  1.15118203E+00  0.00000000E+00  0.00000000E+00 -3.76662360E-01
  3.94860161E-02  0.00000000E+00  0.00000000E+00  2.50722034E-01 -8.05656205E-01
  4.33927834E-02 -6.26970346E-01  0.00000000E+00  0.00000000E+00  0.00000000E+00
 -4.56764698E-01  4.65708473E-01  0.00000000E+00  7.80549583E-02 -3.06819490E-01
 -4.56764698E-01  4.65708473E-01  0.00000000E+00 -7.80549583E-02 -3.06819490E-01
 -1.99224740E-01  3.14145286E-01  0.00000000E+00  0.00000000E+00  3.60838760E-01
 -5.73532690E-02  0.00000000E+00  0.00000000E+00  1.12682987E+00 -1.07507282E-01
 -1.56709370E+00 -1.12431637E+00  0.00000000E+00  0.00000000E+00  0.00000000E+00
  1.23269459E+00  2.35329240E-01  0.00000000E+00 -7.20275584E-01  4.46282624E-01
  1.23269459E+00  2.35329240E-01  0.00000000E+00  7.20275584E-01  4.46282624E-01
 -4.08958665E-01 -9.83722072E-01  0.00000000E+00  0.00000000E+00  1.72183098E-01
  5.80398344E+00  0.00000000E+00  0.00000000E+00 -1.16576224E+00 -1.58624185E+00
 -1.18862296E+00 -1.22818528E+00  0.00000000E+00  0.00000000E+00  0.00000000E+00
 -3.33323119E-01 -1.26759594E+00  0.00000000E+00  1.40224364E-01  2.04032255E-02
 -3.33323119E-01 -1.26759594E+00  0.00000000E+00 -1.40224364E-01  2.04032255E-02
  0.00000000E+00  0.00000000E+00  0.00000000E+00  0.00000000E+00  0.00000000E+00
  0.00000000E+00  0.00000000E+00  0.00000000E+00  0.00000000E+00  0.00000000E+00
  0.00000000E+00  0.00000000E+00  5.94816639E-01  0.00000000E+00  0.00000000E+00
  0.00000000E+00  0.00000000E+00  4.15433214E-01  0.00000000E+00  0.00000000E+00
  0.00000000E+00  0.00000000E+00 -4.15433214E-01  0.00000000E+00  0.00000000E+00
  0.00000000E+00  0.00000000E+00  0.00000000E+00  0.00000000E+00  0.00000000E+00
  0.00000000E+00  0.00000000E+00  0.00000000E+00  0.00000000E+00  0.00000000E+00
  0.00000000E+00  0.00000000E+00 -9.40264760E-01  0.00000000E+00  0.00000000E+00
  0.00000000E+00  0.00000000E+00  6.73134821E-01  0.00000000E+00  0.00000000E+00
  0.00000000E+00  0.00000000E+00 -6.73134821E-01  0.00000000E+00  0.00000000E+00
  0.00000000E+00  0.00000000E+00  3.94168915E-01  0.00000000E+00  0.00000000E+00
  0.00000000E+00  4.54878041E-01  0.00000000E+00  0.00000000E+00  0.00000000E+00
  0.00000000E+00  0.00000000E+00  0.00000000E+00 -1.78472439E-01  0.00000000E+00
  0.00000000E+00  0.00000000E+00  2.88731025E-01  0.00000000E+00  0.00000000E+00
  0.00000000E+00  0.00000000E+00  2.88731025E-01  0.00000000E+00  0.00000000E+00
  0.00000000E+00  0.00000000E+00  3.78236016E-01  0.00000000E+00  0.00000000E+00
  0.00000000E+00  2.75771055E-01  0.00000000E+00  0.00000000E+00  0.00000000E+00
  0.00000000E+00  0.00000000E+00  0.00000000E+00  7.06323990E-01  0.00000000E+00
  0.00000000E+00  0.00000000E+00 -2.57110770E-01  0.00000000E+00  0.00000000E+00
  0.00000000E+00  0.00000000E+00 -2.57110770E-01  0.00000000E+00  0.00000000E+00
  0.00000000E+00  0.00000000E+00  7.49445655E-01  0.00000000E+00  0.00000000E+00
  0.00000000E+00 -2.69659275E-01  0.00000000E+00  0.00000000E+00  0.00000000E+00
  0.00000000E+00  0.00000000E+00  0.00000000E+00 -6.63012540E-01  0.00000000E+00
  0.00000000E+00  0.00000000E+00 -5.04060073E-01  0.00000000E+00  0.00000000E+00
  0.00000000E+00  0.00000000E+00 -5.04060073E-01  0.00000000E+00  0.00000000E+00
  0.00000000E+00  0.00000000E+00 -6.89899084E-01  0.00000000E+00  0.00000000E+00
  0.00000000E+00  1.08688794E+00  0.00000000E+00  0.00000000E+00  0.00000000E+00
  0.00000000E+00  0.00000000E+00  0.00000000E+00 -4.32755680E-01  0.00000000E+00
  0.00000000E+00  0.00000000E+00 -5.18994531E-01  0.00000000E+00  0.00000000E+00
  0.00000000E+00  0.00000000E+00 -5.18994531E-01  0.00000000E+00  0.00000000E+00
  0.00000000E+00  0.00000000E+00  0.00000000E+00  2.82171529E-01  0.00000000E+00
  0.00000000E+00  0.00000000E+00  3.70812680E-01  0.00000000E+00  0.00000000E+00
  0.00000000E+00  0.00000000E+00  0.00000000E+00  0.00000000E+00 -1.41534836E-01
  2.38442228E-01  1.48823056E-01  0.00000000E+00 -2.52046126E-02  1.07688146E-01
 -2.38442228E-01 -1.48823056E-01  0.00000000E+00 -2.52046126E-02 -1.07688146E-01
  0.00000000E+00  0.00000000E+00  0.00000000E+00  1.93994273E-02  0.00000000E+00
  0.00000000E+00  0.00000000E+00  2.40112852E-01  0.00000000E+00  0.00000000E+00
  0.00000000E+00  0.00000000E+00  0.00000000E+00  0.00000000E+00  6.20785781E-01
 -5.99765129E-02  9.79713289E-02  0.00000000E+00  3.81352893E-01  5.57941761E-02
  5.99765129E-02 -9.79713289E-02  0.00000000E+00  3.81352893E-01 -5.57941761E-02
  0.00000000E+00  0.00000000E+00  0.00000000E+00  4.36695122E-01  0.00000000E+00
  0.00000000E+00  0.00000000E+00 -3.88087080E-02  0.00000000E+00  0.00000000E+00
  0.00000000E+00  0.00000000E+00  0.00000000E+00  0.00000000E+00  2.11151966E-01
 -2.60250596E-01 -1.60651466E-01  0.00000000E+00 -2.25838169E-01  3.78851400E-01
  2.60250596E-01  1.60651466E-01  0.00000000E+00 -2.25838169E-01 -3.78851400E-01
  0.00000000E+00  0.00000000E+00  0.00000000E+00 -3.83351306E-01  0.00000000E+00
  0.00000000E+00  0.00000000E+00 -1.46457009E-01  0.00000000E+00  0.00000000E+00
  0.00000000E+00  0.00000000E+00  0.00000000E+00  0.00000000E+00 -4.51034460E-01
  2.50468485E-02 -4.62420475E-02  0.00000000E+00  3.58273171E-01  5.50299371E-01