isNO                                                                   
Guess=OnlyRHF                                                         Gen                 
Number of atoms                            I                3
Info1-9                                    I   N=           9
           4           3           0           0           0         100
           3           1           2
Full Title                                 C   N=           1
xxxx        
Route                                      C   N=           5
# Guess=(Save,Only,NaturalOrbitals) Geom=AllCheck ChkBasis  
Charge                                     I                0
Multiplicity                               I                1
Number of electrons                        I               10
Number of alpha electrons                  I                5
Number of beta electrons                   I                5
Number of basis functions                  I               25
Number of independent functions            I               25
Number of point charges in /Mol/           I                0
Number of translation vectors              I                0
Atomic numbers                             I   N=           3
           8           1           1
Nuclear charges                            R   N=           3
  8.00000000E+00  1.00000000E+00  1.00000000E+00
Current cartesian coordinates              R   N=           9
 -6.94129116E-33  0.00000000E+00  2.25257777E-01  1.74821317E-31  1.43501212E+00
 -9.01031107E-01 -1.75738300E-16 -1.43501212E+00 -9.01031107E-01
Number of symbols in /Mol/                 I                0
Force Field                                I                0
Atom Types                                 C   N=           3
                                    
Int Atom Types                             I   N=           3
           0           0           0
MM charges                                 R   N=           3
  0.00000000E+00  0.00000000E+00  0.00000000E+00
Integer atomic weights                     I   N=           3
          16           1           1
Real atomic weights                        R   N=           3
  1.59949146E+01  1.00782504E+00  1.00782504E+00
Atom fragment info                         I   N=           3
           0           0           0
Atom residue num                           I   N=           3
           0           0           0
Nuclear spins                              I   N=           3
           0           1           1
Nuclear ZEff                               R   N=           3
 -5.60000000E+00 -1.00000000E+00 -1.00000000E+00
Nuclear ZNuc                               R   N=           3
  8.00000000E+00  1.00000000E+00  1.00000000E+00
Nuclear QMom                               R   N=           3
  0.00000000E+00  0.00000000E+00  0.00000000E+00
Nuclear GFac                               R   N=           3
  0.00000000E+00  2.79284600E+00  2.79284600E+00
MicOpt                                     I   N=           3
          -1          -1          -1
Number of residues                         I                0
Number of secondary structures             I                0
SymInf integers                            I   N=          26
           2           4           1           1           1          -1
          -1           1          -1           1           1           1
          -1           1           0           0           0           0
           0           0           0           0           0           0
           0           0
RotTr to input orientation                 R   N=          12
  1.00000000E+00 -6.27786230E-16 -2.00481209E-16  6.27786230E-16  1.00000000E+00
  3.82856870E-16  2.00481209E-16 -3.82856870E-16  1.00000000E+00 -1.75738300E-17
  0.00000000E+00 -3.77945222E-09
Number of contracted shells                I               10
Number of primitive shells                 I               21
Pure/Cartesian d shells                    I                1
Pure/Cartesian f shells                    I                0
Highest angular momentum                   I                2
Largest degree of contraction              I                6
Shell types                                I   N=          10
           0          -1          -1           2           0           0
           1           0           0           1
Number of primitives per shell             I   N=          10
           6           3           1           1           3           1
           1           3           1           1
Shell to atom map                          I   N=          10
           1           1           1           1           2           2
           2           3           3           3
Primitive exponents                        R   N=          21
  5.48467166E+03  8.25234946E+02  1.88046958E+02  5.29645000E+01  1.68975704E+01
  5.79963534E+00  1.55396162E+01  3.59993359E+00  1.01376175E+00  2.70005823E-01
  8.00000000E-01  1.87311370E+01  2.82539436E+00  6.40121692E-01  1.61277759E-01
  1.10000000E+00  1.87311370E+01  2.82539436E+00  6.40121692E-01  1.61277759E-01
  1.10000000E+00
Contraction coefficients                   R   N=          21
  1.83107443E-03  1.39501722E-02  6.84450781E-02  2.32714336E-01  4.70192898E-01
  3.58520853E-01 -1.10777550E-01 -1.48026263E-01  1.13076702E+00  1.00000000E+00
  1.00000000E+00  3.34946043E-02  2.34726953E-01  8.13757326E-01  1.00000000E+00
  1.00000000E+00  3.34946043E-02  2.34726953E-01  8.13757326E-01  1.00000000E+00
  1.00000000E+00
P(S=P) Contraction coefficients            R   N=          21
  0.00000000E+00  0.00000000E+00  0.00000000E+00  0.00000000E+00  0.00000000E+00
  0.00000000E+00  7.08742682E-02  3.39752839E-01  7.27158577E-01  1.00000000E+00
  0.00000000E+00  0.00000000E+00  0.00000000E+00  0.00000000E+00  0.00000000E+00
  0.00000000E+00  0.00000000E+00  0.00000000E+00  0.00000000E+00  0.00000000E+00
  0.00000000E+00
Coordinates of each shell                  R   N=          30
 -6.94129116E-33  0.00000000E+00  2.25257777E-01 -6.94129116E-33  0.00000000E+00
  2.25257777E-01 -6.94129116E-33  0.00000000E+00  2.25257777E-01 -6.94129116E-33
  0.00000000E+00  2.25257777E-01  1.74821317E-31  1.43501212E+00 -9.01031107E-01
  1.74821317E-31  1.43501212E+00 -9.01031107E-01  1.74821317E-31  1.43501212E+00
 -9.01031107E-01 -1.75738300E-16 -1.43501212E+00 -9.01031107E-01 -1.75738300E-16
 -1.43501212E+00 -9.01031107E-01 -1.75738300E-16 -1.43501212E+00 -9.01031107E-01
Num ILSW                                   I              100
ILSW                                       I   N=         100
           0           1           0           0           0           0
           0           0           0           0           0          -1
           5           0           0           0           0           0
           0           0           1           0           0           0
           0           0           0           0           0           0
           0           0      100000           0          -1           0
           0           0           0           0           0           0
           0           0           0           1           0           0
           0 -2000000000           1           0           0           0
           0           0           4          52           0           0
           0           0           0           0           0           0
           0           0           0           0           0           1
           0           0           0           0           0           0
           0           0           0           0           0           0
           0           0           0           0           0           0
           0           0           0           0           0           0
           0           0           0           0
Num RLSW                                   I               52
RLSW                                       R   N=          52
  1.00000000E+00  1.00000000E+00  1.00000000E+00  1.00000000E+00  1.00000000E+00
  0.00000000E+00  0.00000000E+00  1.00000000E+00  0.00000000E+00  0.00000000E+00
  0.00000000E+00  0.00000000E+00  1.00000000E+00  0.00000000E+00  0.00000000E+00
  0.00000000E+00  0.00000000E+00  1.00000000E+00  0.00000000E+00  0.00000000E+00
  0.00000000E+00  0.00000000E+00  1.00000000E+00  0.00000000E+00  0.00000000E+00
  0.00000000E+00  0.00000000E+00  1.00000000E+00  0.00000000E+00  0.00000000E+00
  0.00000000E+00  0.00000000E+00  1.00000000E+00  0.00000000E+00  0.00000000E+00
  0.00000000E+00  0.00000000E+00  0.00000000E+00  1.00000000E+00  1.00000000E+00
  0.00000000E+00  1.00000000E+00  0.00000000E+00  0.00000000E+00  0.00000000E+00
  0.00000000E+00  0.00000000E+00  0.00000000E+00  0.00000000E+00  0.00000000E+00
  0.00000000E+00  0.00000000E+00
MxBond                                     I                2
NBond                                      I   N=           3
           2           1           1
IBond                                      I   N=           6
           2           3           1           0           1           0
RBond                                      R   N=           6
  1.00000000E+00  1.00000000E+00  1.00000000E+00  0.00000000E+00  1.00000000E+00
  0.00000000E+00
Virial Ratio                               R      0.000000000000000E+00
Job Status                                 I               -1
Nuclear derivative order                   I                0
External E-field                           R   N=          35
  0.00000000E+00  0.00000000E+00  0.00000000E+00  0.00000000E+00  0.00000000E+00
  0.00000000E+00  0.00000000E+00  0.00000000E+00  0.00000000E+00  0.00000000E+00
  0.00000000E+00  0.00000000E+00  0.00000000E+00  0.00000000E+00  0.00000000E+00
  0.00000000E+00  0.00000000E+00  0.00000000E+00  0.00000000E+00  0.00000000E+00
  0.00000000E+00  0.00000000E+00  0.00000000E+00  0.00000000E+00  0.00000000E+00
  0.00000000E+00  0.00000000E+00  0.00000000E+00  0.00000000E+00  0.00000000E+00
  0.00000000E+00  0.00000000E+00  0.00000000E+00  0.00000000E+00  0.00000000E+00
IOpCl                                      I                0
IROHF                                      I                0
Alpha Orbital Energies                     R   N=          25
  2.00000089E+00  1.98715543E+00  1.97350179E+00  1.96982943E+00  1.96829485E+00
  2.35036127E-02  2.13092128E-02  1.74335652E-02  1.02025348E-02  5.59113782E-03
  5.19549729E-03  4.89137892E-03  4.39666053E-03  4.39091445E-03  9.06486817E-04
  7.32132190E-04  6.18898019E-04  4.54690199E-04  4.19378761E-04  3.96092849E-04
  3.36090805E-04  2.38820867E-04  1.24823918E-04  4.84724341E-05  2.72125236E-05
Alpha MO coefficients                      R   N=         625
  9.94803728E-01  2.09500901E-02  0.00000000E+00  0.00000000E+00 -4.42627183E-03
  2.77311518E-03  0.00000000E+00  0.00000000E+00 -1.84115881E-03 -4.03289097E-03
 -3.85317183E-03 -3.66647054E-03  0.00000000E+00  0.00000000E+00  0.00000000E+00
  9.76065606E-04  2.41770931E-04  0.00000000E+00  2.25886470E-04 -2.55899453E-04
  9.76065606E-04  2.41770931E-04  0.00000000E+00 -2.25886470E-04 -2.55899453E-04
 -2.23315076E-01  5.00437081E-01  0.00000000E+00  0.00000000E+00  4.69354021E-02
  5.04992020E-01  0.00000000E+00  0.00000000E+00  6.46592394E-02 -1.72555114E-03
  2.76446879E-03 -5.39836330E-03  0.00000000E+00  0.00000000E+00  0.00000000E+00
  1.03302388E-01 -1.10851047E-02  0.00000000E+00 -1.68723785E-02  1.46174413E-02
  1.03302388E-01 -1.10851047E-02  0.00000000E+00  1.68723785E-02  1.46174413E-02
  0.00000000E+00  0.00000000E+00  6.32369673E-01  0.00000000E+00  0.00000000E+00
  0.00000000E+00  5.06933608E-01  0.00000000E+00  0.00000000E+00  0.00000000E+00
  0.00000000E+00  0.00000000E+00  0.00000000E+00 -2.82250962E-02  0.00000000E+00
  0.00000000E+00  0.00000000E+00  2.12267648E-02  0.00000000E+00  0.00000000E+00
  0.00000000E+00  0.00000000E+00  2.12267648E-02  0.00000000E+00  0.00000000E+00
 -1.63819642E-02  3.90153351E-02  0.00000000E+00  0.00000000E+00  5.56203965E-01
  2.49852736E-01  0.00000000E+00  0.00000000E+00  3.76905639E-01  5.48132312E-03
 -2.25544154E-03 -4.09940069E-02  0.00000000E+00  0.00000000E+00  0.00000000E+00
 -1.77716143E-01 -1.06404502E-01  0.00000000E+00  1.78300850E-02  4.63772475E-03
 -1.77716143E-01 -1.06404502E-01  0.00000000E+00 -1.78300850E-02  4.63772475E-03
  0.00000000E+00  0.00000000E+00  0.00000000E+00  5.08946654E-01  0.00000000E+00
  0.00000000E+00  0.00000000E+00  2.65580281E-01  0.00000000E+00  0.00000000E+00
  0.00000000E+00  0.00000000E+00  0.00000000E+00  0.00000000E+00 -3.16269661E-02
  2.39721996E-01  1.44752848E-01  0.00000000E+00 -8.51293191E-03  1.71878406E-02
 -2.39721996E-01 -1.44752848E-01  0.00000000E+00 -8.51293191E-03 -1.71878406E-02
  0.00000000E+00  0.00000000E+00  0.00000000E+00  8.95102092E-01  0.00000000E+00
  0.00000000E+00  0.00000000E+00 -1.13761228E-01  0.00000000E+00  0.00000000E+00
  0.00000000E+00  0.00000000E+00  0.00000000E+00  0.00000000E+00  6.69399775E-02
 -3.65983943E-01 -3.08698150E-01  0.00000000E+00  7.69150240E-03  7.41395687E-04
  3.65983943E-01  3.08698150E-01  0.00000000E+00  7.69150240E-03 -7.41395687E-04
  6.24231149E-02 -1.94134452E-01  0.00000000E+00  0.00000000E+00  9.10289574E-01
 -3.90283828E-01  0.00000000E+00  0.00000000E+00 -4.28360254E-01 -6.27106398E-02
  2.01425545E-02  6.76167575E-02  0.00000000E+00  0.00000000E+00  0.00000000E+00
  3.05724806E-01  2.19653756E-01  0.00000000E+00 -1.73319868E-02 -1.67452671E-02
  3.05724806E-01  2.19653756E-01  0.00000000E+00  1.73319868E-02 -1.67452671E-02
  0.00000000E+00  0.00000000E+00 -9.63317510E-01  0.00000000E+00  0.00000000E+00
  0.00000000E+00  9.94888925E-01  0.00000000E+00  0.00000000E+00  0.00000000E+00
  0.00000000E+00  0.00000000E+00  0.00000000E+00 -8.62913136E-02  0.00000000E+00
  0.00000000E+00  0.00000000E+00  4.89245369E-02  0.00000000E+00  0.00000000E+00
  0.00000000E+00  0.00000000E+00  4.89245369E-02  0.00000000E+00  0.00000000E+00
 -1.66033636E-01  1.17931471E+00  0.00000000E+00  0.00000000E+00  3.14716429E-01
 -4.80937659E-01  0.00000000E+00  0.00000000E+00 -6.28503755E-01 -6.25959643E-02
 -3.90797733E-01 -1.21690517E-01  0.00000000E+00  0.00000000E+00  0.00000000E+00
 -2.33705992E-01 -1.33937019E-02  0.00000000E+00 -2.20290276E-02 -3.02700533E-02
 -2.33705992E-01 -1.33937019E-02  0.00000000E+00  2.20290276E-02 -3.02700533E-02
  0.00000000E+00  0.00000000E+00  0.00000000E+00 -2.86695439E-01  0.00000000E+00
  0.00000000E+00  0.00000000E+00  5.70838637E-01  0.00000000E+00  0.00000000E+00
  0.00000000E+00  0.00000000E+00  0.00000000E+00  0.00000000E+00  7.03531513E-01
 -2.36411133E-01  1.96748447E-01  0.00000000E+00  5.33308627E-02  3.82438086E-02
  2.36411133E-01 -1.96748447E-01  0.00000000E+00  5.33308627E-02 -3.82438086E-02
 -5.13750236E-02  6.42126104E-01  0.00000000E+00  0.00000000E+00 -1.64237885E-02
 -6.55525216E-01  0.00000000E+00  0.00000000E+00  1.91185506E-01 -5.06063359E-01
  6.32525001E-01 -4.04949404E-01  0.00000000E+00  0.00000000E+00  0.00000000E+00
  2.59810368E-01 -3.57337838E-02  0.00000000E+00  2.23815911E-02  9.48516258E-02
  2.59810368E-01 -3.57337838E-02  0.00000000E+00 -2.23815911E-02  9.48516258E-02
  0.00000000E+00  0.00000000E+00  0.00000000E+00  0.00000000E+00  0.00000000E+00
  0.00000000E+00  0.00000000E+00  0.00000000E+00  0.00000000E+00  0.00000000E+00
  0.00000000E+00  0.00000000E+00  9.08163792E-01  0.00000000E+00  0.00000000E+00
  0.00000000E+00  0.00000000E+00  1.27670893E-01  0.00000000E+00  0.00000000E+00
  0.00000000E+00  0.00000000E+00 -1.27670893E-01  0.00000000E+00  0.00000000E+00
  0.00000000E+00  0.00000000E+00 -8.55072044E-02  0.00000000E+00  0.00000000E+00
  0.00000000E+00  1.80993436E-01  0.00000000E+00  0.00000000E+00  0.00000000E+00
  0.00000000E+00  0.00000000E+00  0.00000000E+00  9.52036064E-01  0.00000000E+00
  0.00000000E+00  0.00000000E+00 -7.49267422E-02  0.00000000E+00  0.00000000E+00
  0.00000000E+00  0.00000000E+00 -7.49267422E-02  0.00000000E+00  0.00000000E+00
  8.51181207E-03 -1.42403260E-01  0.00000000E+00  0.00000000E+00  1.00537246E-01
  1.31781114E-01  0.00000000E+00  0.00000000E+00 -2.06367146E-01  7.41512970E-01
  1.21879194E-01 -8.62546526E-01  0.00000000E+00  0.00000000E+00  0.00000000E+00
 -3.65699347E-02  4.35317480E-02  0.00000000E+00  4.80530615E-02  6.07689797E-02
 -3.65699347E-02  4.35317480E-02  0.00000000E+00 -4.80530615E-02  6.07689797E-02
 -1.55156505E-03  4.19570509E-01  0.00000000E+00  0.00000000E+00  7.31503780E-02
 -1.00307795E+00  0.00000000E+00  0.00000000E+00  8.97462959E-01  6.08729576E-01
 -9.61752995E-01 -1.68444675E-01  0.00000000E+00  0.00000000E+00  0.00000000E+00
  1.28695428E+00 -2.01739254E-01  0.00000000E+00 -1.71993765E-01  1.96371227E-01
  1.28695428E+00 -2.01739254E-01  0.00000000E+00  1.71993765E-01  1.96371227E-01
  0.00000000E+00  0.00000000E+00  0.00000000E+00 -3.76436772E-02  0.00000000E+00
  0.00000000E+00  0.00000000E+00  1.06214306E+00  0.00000000E+00  0.00000000E+00
  0.00000000E+00  0.00000000E+00  0.00000000E+00  0.00000000E+00 -1.16612766E+00
 -1.17320704E+00  1.88657663E-01  0.00000000E+00  2.47977744E-01  9.20913749E-02
  1.17320704E+00 -1.88657663E-01  0.00000000E+00  2.47977744E-01 -9.20913749E-02
  0.00000000E+00  0.00000000E+00  0.00000000E+00  7.07737517E-01  0.00000000E+00
  0.00000000E+00  0.00000000E+00 -2.56066486E-01  0.00000000E+00  0.00000000E+00
  0.00000000E+00  0.00000000E+00  0.00000000E+00  0.00000000E+00 -5.13608534E-01
 -6.68059703E-01  8.16385071E-01  0.00000000E+00  3.01916688E-01 -6.15316379E-01
  6.68059703E-01 -8.16385071E-01  0.00000000E+00  3.01916688E-01  6.15316379E-01
 -8.64264616E-02  6.48330438E-01  0.00000000E+00  0.00000000E+00 -5.43611134E-01
 -6.51504027E-03  0.00000000E+00  0.00000000E+00  1.97845848E-01 -3.66180596E-01
 -1.52220841E-01  6.46477616E-02  0.00000000E+00  0.00000000E+00  0.00000000E+00
 -2.85220394E-01  3.32881830E-01  0.00000000E+00  6.78948603E-01 -2.66924453E-01
 -2.85220394E-01  3.32881830E-01  0.00000000E+00 -6.78948603E-01 -2.66924453E-01
  0.00000000E+00  0.00000000E+00  0.00000000E+00  0.00000000E+00  0.00000000E+00
  0.00000000E+00  0.00000000E+00  0.00000000E+00  0.00000000E+00  0.00000000E+00
  0.00000000E+00  0.00000000E+00 -6.42762083E-01  0.00000000E+00  0.00000000E+00
  0.00000000E+00  0.00000000E+00  7.80637777E-01  0.00000000E+00  0.00000000E+00
  0.00000000E+00  0.00000000E+00 -7.80637777E-01  0.00000000E+00  0.00000000E+00
  0.00000000E+00  0.00000000E+00  0.00000000E+00  3.82151611E-01  0.00000000E+00
  0.00000000E+00  0.00000000E+00 -8.03423494E-01  0.00000000E+00  0.00000000E+00
  0.00000000E+00  0.00000000E+00  0.00000000E+00  0.00000000E+00 -6.57002502E-02
  2.06298131E-01  1.78263079E-01  0.00000000E+00  6.68261947E-01  2.97389082E-01
 -2.06298131E-01 -1.78263079E-01  0.00000000E+00  6.68261947E-01 -2.97389082E-01
  0.00000000E+00  0.00000000E+00 -2.96250579E-02  0.00000000E+00  0.00000000E+00
  0.00000000E+00  5.07406063E-01  0.00000000E+00  0.00000000E+00  0.00000000E+00
  0.00000000E+00  0.00000000E+00  0.00000000E+00 -4.92943738E-01  0.00000000E+00
  0.00000000E+00  0.00000000E+00 -8.15135069E-01  0.00000000E+00  0.00000000E+00
  0.00000000E+00  0.00000000E+00 -8.15135069E-01  0.00000000E+00  0.00000000E+00
 -4.33689407E-02  1.71110158E-01  0.00000000E+00  0.00000000E+00 -1.50329763E-01
  2.53483124E-01  0.00000000E+00  0.00000000E+00  5.02662564E-01 -1.04981328E-01
  5.10273196E-01 -7.91268282E-01  0.00000000E+00  0.00000000E+00  0.00000000E+00
  1.37984227E-01 -8.14772755E-02  0.00000000E+00 -3.36279830E-01 -7.92554624E-01
  1.37984227E-01 -8.14772755E-02  0.00000000E+00  3.36279830E-01 -7.92554624E-01
 -4.10944887E-01 -4.32993661E-01  0.00000000E+00  0.00000000E+00  3.11837733E-01
  3.86467274E+00  0.00000000E+00  0.00000000E+00 -9.97556939E-02 -1.45409506E+00
 -1.83034803E+00 -1.63123609E+00  0.00000000E+00  0.00000000E+00  0.00000000E+00
  2.52841573E-01 -3.60322896E-01  0.00000000E+00 -4.12229638E-01  3.76091959E-01
  2.52841573E-01 -3.60322896E-01  0.00000000E+00  4.12229638E-01  3.76091959E-01
  0.00000000E+00  0.00000000E+00  0.00000000E+00  1.64619553E-01  0.00000000E+00
  0.00000000E+00  0.00000000E+00  1.97564264E+00  0.00000000E+00  0.00000000E+00
  0.00000000E+00  0.00000000E+00  0.00000000E+00  0.00000000E+00 -8.99844867E-01
 -5.32288121E-01 -1.64074346E+00  0.00000000E+00  6.42273752E-01 -6.51510854E-01
  5.32288121E-01  1.64074346E+00  0.00000000E+00  6.42273752E-01  6.51510854E-01
 -1.71860192E-01 -7.56766406E-01  0.00000000E+00  0.00000000E+00  6.90429096E-03
  4.08227258E+00  0.00000000E+00  0.00000000E+00 -1.42444930E+00 -8.18412989E-01
 -1.29595775E-01 -2.24013832E-01  0.00000000E+00  0.00000000E+00  0.00000000E+00
 -3.88550047E-01 -1.46537038E+00  0.00000000E+00  5.77242245E-01 -2.52519323E-01
 -3.88550047E-01 -1.46537038E+00  0.00000000E+00 -5.77242245E-01 -2.52519323E-01
Orthonormal basis                          R   N=         625
  3.12751180E-02  1.57637256E-01  0.00000000E+00  0.00000000E+00 -3.24892382E-02
  1.97718628E-01  0.00000000E+00  0.00000000E+00 -5.18433441E-02  1.31165261E-01
  1.50807553E-01  1.44726427E-01  0.00000000E+00  0.00000000E+00  0.00000000E+00
  1.09132443E-01  1.50772013E-01  0.00000000E+00 -5.65215986E-02  3.35015522E-02
  1.09132443E-01  1.50772013E-01  0.00000000E+00  5.65215986E-02  3.35015522E-02
  5.13636507E-02  1.56679695E-01  0.00000000E+00  0.00000000E+00  3.43748184E-01
  1.17610306E-01  0.00000000E+00  0.00000000E+00  4.40065540E-01  1.27793482E-01
  1.40094628E-01  2.69353312E-02  0.00000000E+00  0.00000000E+00  0.00000000E+00
 -1.43378267E-01 -8.62016705E-02  0.00000000E+00  9.90258698E-02  1.65939615E-01
 -1.43378267E-01 -8.62016705E-02  0.00000000E+00 -9.90258698E-02  1.65939615E-01
 -1.23295903E-01 -2.04064097E-01  0.00000000E+00  0.00000000E+00  2.73875708E-01
  2.02976867E-02  0.00000000E+00  0.00000000E+00 -1.77422280E-02 -3.66354454E-02
  5.62181370E-02 -1.48217829E-01  0.00000000E+00  0.00000000E+00  0.00000000E+00
  1.92218450E-01  2.34776126E-01  0.00000000E+00  4.19953755E-01 -1.12078125E-01
  1.92218450E-01  2.34776126E-01  0.00000000E+00 -4.19953755E-01 -1.12078125E-01
 -2.81708471E-02 -3.44330505E-02  0.00000000E+00  0.00000000E+00 -3.11837950E-01
 -8.03001307E-02  0.00000000E+00  0.00000000E+00 -1.24893368E-01 -1.20619602E-01
  3.49306158E-01 -3.39914390E-01  0.00000000E+00  0.00000000E+00  0.00000000E+00
  8.10300973E-02 -5.52734919E-02  0.00000000E+00  1.10926675E-01  4.39354340E-01
  8.10300973E-02 -5.52734919E-02  0.00000000E+00 -1.10926675E-01  4.39354340E-01
  9.53770809E-01  9.88669876E-02  0.00000000E+00  0.00000000E+00  1.02570575E-02
  2.67611803E-04  0.00000000E+00  0.00000000E+00 -7.82121406E-02 -9.13008108E-02
 -9.65000308E-02 -1.62072365E-01  0.00000000E+00  0.00000000E+00  0.00000000E+00
  2.26501990E-02  3.01006049E-02  0.00000000E+00  9.64709768E-02 -3.46147035E-02
  2.26501990E-02  3.01006049E-02  0.00000000E+00 -9.64709768E-02 -3.46147035E-02
 -5.85300541E-02  6.90932615E-02  0.00000000E+00  0.00000000E+00 -2.59705614E-01
  7.14905441E-02  0.00000000E+00  0.00000000E+00 -1.28552324E-01  8.94371117E-01
 -3.17224777E-01 -4.49577620E-01  0.00000000E+00  0.00000000E+00  0.00000000E+00
 -2.15833801E-01  6.54451903E-02  0.00000000E+00  1.28224954E-01 -1.24448454E-02
 -2.15833801E-01  6.54451903E-02  0.00000000E+00 -1.28224954E-01 -1.24448454E-02
 -8.98492926E-02  3.43739004E-01  0.00000000E+00  0.00000000E+00  9.13077898E-01
 -1.87070232E-01  0.00000000E+00  0.00000000E+00 -7.51123210E-01  1.01525832E-01
  3.38742834E-01 -5.29762885E-01  0.00000000E+00  0.00000000E+00  0.00000000E+00
  1.05846793E-02 -1.41561707E-01  0.00000000E+00 -2.92421846E-01 -6.08138623E-02
  1.05846793E-02 -1.41561707E-01  0.00000000E+00  2.92421846E-01 -6.08138623E-02
  1.39181513E-01 -8.74769252E-01  0.00000000E+00  0.00000000E+00  2.32720095E-01
  7.86940462E-02  0.00000000E+00  0.00000000E+00  1.18845557E-01 -1.12297871E-01
  1.30984239E-01 -2.55740935E-01  0.00000000E+00  0.00000000E+00  0.00000000E+00
 -4.54257779E-01  6.64908299E-01  0.00000000E+00 -4.39572489E-01  1.88851440E-01
 -4.54257779E-01  6.64908299E-01  0.00000000E+00  4.39572489E-01  1.88851440E-01
  1.11199180E-01 -3.42834224E-01  0.00000000E+00  0.00000000E+00 -3.48959539E-01
  1.48683417E-01  0.00000000E+00  0.00000000E+00  6.59795536E-01  2.37300252E-01
  9.29357029E-01 -6.32144822E-01  0.00000000E+00  0.00000000E+00  0.00000000E+00
  2.48812446E-01 -2.52192484E-01  0.00000000E+00 -2.45510931E-01 -6.23374038E-01
  2.48812446E-01 -2.52192484E-01  0.00000000E+00  2.45510931E-01 -6.23374038E-01
 -3.19763736E-01  1.15118191E+00  0.00000000E+00  0.00000000E+00 -3.76662181E-01
  3.94859505E-02  0.00000000E+00  0.00000000E+00  2.50721700E-01 -8.05656302E-01
  4.33926324E-02 -6.26970041E-01  0.00000000E+00  0.00000000E+00  0.00000000E+00
 -4.56764947E-01  4.65708652E-01  0.00000000E+00  7.80550033E-02 -3.06819235E-01
 -4.56764947E-01  4.65708652E-01  0.00000000E+00 -7.80550033E-02 -3.06819235E-01
 -1.99224754E-01  3.14145632E-01  0.00000000E+00  0.00000000E+00  3.60838548E-01
 -5.73532296E-02  0.00000000E+00  0.00000000E+00  1.12682985E+00 -1.07507341E-01
 -1.56709361E+00 -1.12431635E+00  0.00000000E+00  0.00000000E+00  0.00000000E+00
  1.23269434E+00  2.35329264E-01  0.00000000E+00 -7.20275531E-01  4.46282565E-01
  1.23269434E+00  2.35329264E-01  0.00000000E+00  7.20275531E-01  4.46282565E-01
 -4.08958658E-01 -9.83722028E-01  0.00000000E+00  0.00000000E+00  1.72183098E-01
  5.80398313E+00  0.00000000E+00  0.00000000E+00 -1.16576218E+00 -1.58624183E+00
 -1.18862291E+00 -1.22818528E+00  0.00000000E+00  0.00000000E+00  0.00000000E+00
 -3.33323098E-01 -1.26759583E+00  0.00000000E+00  1.40224392E-01  2.04031832E-02
 -3.33323098E-01 -1.26759583E+00  0.00000000E+00 -1.40224392E-01  2.04031832E-02
  0.00000000E+00  0.00000000E+00  0.00000000E+00  0.00000000E+00  0.00000000E+00
  0.00000000E+00  0.00000000E+00  0.00000000E+00  0.00000000E+00  0.00000000E+00
  0.00000000E+00  0.00000000E+00  5.94816649E-01  0.00000000E+00  0.00000000E+00
  0.00000000E+00  0.00000000E+00  4.15433223E-01  0.00000000E+00  0.00000000E+00
  0.00000000E+00  0.00000000E+00 -4.15433223E-01  0.00000000E+00  0.00000000E+00
  0.00000000E+00  0.00000000E+00  0.00000000E+00  0.00000000E+00  0.00000000E+00
  0.00000000E+00  0.00000000E+00  0.00000000E+00  0.00000000E+00  0.00000000E+00
  0.00000000E+00  0.00000000E+00 -9.40264709E-01  0.00000000E+00  0.00000000E+00
  0.00000000E+00  0.00000000E+00  6.73134781E-01  0.00000000E+00  0.00000000E+00
  0.00000000E+00  0.00000000E+00 -6.73134781E-01  0.00000000E+00  0.00000000E+00
  0.00000000E+00  0.00000000E+00  3.94168935E-01  0.00000000E+00  0.00000000E+00
  0.00000000E+00  4.54878066E-01  0.00000000E+00  0.00000000E+00  0.00000000E+00
  0.00000000E+00  0.00000000E+00  0.00000000E+00 -1.78472423E-01  0.00000000E+00
  0.00000000E+00  0.00000000E+00  2.88731014E-01  0.00000000E+00  0.00000000E+00
  0.00000000E+00  0.00000000E+00  2.88731014E-01  0.00000000E+00  0.00000000E+00
  0.00000000E+00  0.00000000E+00  3.78236007E-01  0.00000000E+00  0.00000000E+00
  0.00000000E+00  2.75771028E-01  0.00000000E+00  0.00000000E+00  0.00000000E+00
  0.00000000E+00  0.00000000E+00  0.00000000E+00  7.06323988E-01  0.00000000E+00
  0.00000000E+00  0.00000000E+00 -2.57110797E-01  0.00000000E+00  0.00000000E+00
  0.00000000E+00  0.00000000E+00 -2.57110797E-01  0.00000000E+00  0.00000000E+00
  0.00000000E+00  0.00000000E+00  7.49445527E-01  0.00000000E+00  0.00000000E+00
  0.00000000E+00 -2.69659156E-01  0.00000000E+00  0.00000000E+00  0.00000000E+00
  0.00000000E+00  0.00000000E+00  0.00000000E+00 -6.63012586E-01  0.00000000E+00
  0.00000000E+00  0.00000000E+00 -5.04060109E-01  0.00000000E+00  0.00000000E+00
  0.00000000E+00  0.00000000E+00 -5.04060109E-01  0.00000000E+00  0.00000000E+00
  0.00000000E+00  0.00000000E+00 -6.89899216E-01  0.00000000E+00  0.00000000E+00
  0.00000000E+00  1.08688795E+00  0.00000000E+00  0.00000000E+00  0.00000000E+00
  0.00000000E+00  0.00000000E+00  0.00000000E+00 -4.32755557E-01  0.00000000E+00
  0.00000000E+00  0.00000000E+00 -5.18994441E-01  0.00000000E+00  0.00000000E+00
  0.00000000E+00  0.00000000E+00 -5.18994441E-01  0.00000000E+00  0.00000000E+00
  0.00000000E+00  0.00000000E+00  0.00000000E+00  2.82171519E-01  0.00000000E+00
  0.00000000E+00  0.00000000E+00  3.70812680E-01  0.00000000E+00  0.00000000E+00
  0.00000000E+00  0.00000000E+00  0.00000000E+00  0.00000000E+00 -1.41534844E-01
  2.38442226E-01  1.48823064E-01  0.00000000E+00 -2.52046284E-02  1.07688145E-01
 -2.38442226E-01 -1.48823064E-01  0.00000000E+00 -2.52046284E-02 -1.07688145E-01
  0.00000000E+00  0.00000000E+00  0.00000000E+00  1.93993023E-02  0.00000000E+00
  0.00000000E+00  0.00000000E+00  2.40112863E-01  0.00000000E+00  0.00000000E+00
  0.00000000E+00  0.00000000E+00  0.00000000E+00  0.00000000E+00  6.20785691E-01
 -5.99763986E-02  9.79713910E-02  0.00000000E+00  3.81352980E-01  5.57940166E-02
  5.99763986E-02 -9.79713910E-02  0.00000000E+00  3.81352980E-01 -5.57940166E-02
  0.00000000E+00  0.00000000E+00  0.00000000E+00  4.36695137E-01  0.00000000E+00
  0.00000000E+00  0.00000000E+00 -3.88085833E-02  0.00000000E+00  0.00000000E+00
  0.00000000E+00  0.00000000E+00  0.00000000E+00  0.00000000E+00  2.11152192E-01
 -2.60250641E-01 -1.60651440E-01  0.00000000E+00 -2.25838000E-01  3.78851428E-01
  2.60250641E-01  1.60651440E-01  0.00000000E+00 -2.25838000E-01 -3.78851428E-01
  0.00000000E+00  0.00000000E+00  0.00000000E+00 -3.83351325E-01  0.00000000E+00
  0.00000000E+00  0.00000000E+00 -1.46456981E-01  0.00000000E+00  0.00000000E+00
  0.00000000E+00  0.00000000E+00  0.00000000E+00  0.00000000E+00 -4.51034421E-01
  2.50468564E-02 -4.62420279E-02  0.00000000E+00  3.58273165E-01  5.50299353E-01
 -2.50468564E-02  4.62420279E-02  0.00000000E+00  3.58273165E-01 -5.50299353E-01
  0.00000000E+00  0.00000000E+00  0.00000000E+00  1.02477402E+00  0.00000000E+00
  0.00000000E+00  0.00000000E+00 -7.31775273E-01  0.00000000E+00  0.00000000E+00